 &FCI NORB= 26,NELEC=  8,MS2= 0,
  ORBSYM=1,1,1,1,1,1,2,2,2,3,3,3,4,5,5,5,5,5,5,6,6,6,7,7,7,8,
  ISYM=1,
 /
  0.6948847556609097E+00   1   1   1   1
  0.1082642538219319E+00   2   1   1   1
  0.4795160360789395E-01   2   1   2   1
  0.4825351985090918E+00   2   2   1   1
  0.1739709772162807E-01   2   2   2   1
  0.5055992361424761E+00   2   2   2   2
 -0.6336721240388302E-01   3   1   1   1
 -0.2795813104496811E-01   3   1   2   1
 -0.2731993075868771E-01   3   1   2   2
  0.2511520601280854E-01   3   1   3   1
 -0.1091736047644398E+00   3   2   1   1
 -0.2437985180286636E-01   3   2   2   1
 -0.6964163664563106E-01   3   2   2   2
  0.1558932610717811E-01   3   2   3   1
  0.4128047545313678E-01   3   2   3   2
  0.3684120516847576E+00   3   3   1   1
  0.2001714623762428E-01   3   3   2   1
  0.3475337611443147E+00   3   3   2   2
 -0.1691746273296243E-01   3   3   3   1
 -0.2585087180597878E-01   3   3   3   2
  0.3010361118556422E+00   3   3   3   3
 -0.9640097319325511E-01   4   1   1   1
 -0.2608278938888775E-01   4   1   2   1
 -0.6173616756303565E-01   4   1   2   2
  0.2445680319980074E-01   4   1   3   1
  0.2752736035456674E-01   4   1   3   2
 -0.2754602787470815E-01   4   1   3   3
  0.3369661805132995E-01   4   1   4   1
  0.1581748026107968E-01   4   2   1   1
 -0.1619623593475774E-01   4   2   2   1
  0.6608564787591982E-01   4   2   2   2
  0.5957263101639831E-02   4   2   3   1
 -0.1580010257058598E-01   4   2   3   2
  0.1543772813186385E-01   4   2   3   3
 -0.7810437665874581E-02   4   2   4   1
  0.3425604540484603E-01   4   2   4   2
  0.5853242340090398E-01   4   3   1   1
  0.2208876567279849E-01   4   3   2   1
 -0.4588118915328021E-02   4   3   2   2
 -0.2932573897053412E-02   4   3   3   1
 -0.1384415850545019E-01   4   3   3   2
  0.4090319607648685E-02   4   3   3   3
 -0.1605933420374753E-02   4   3   4   1
 -0.1206208903631466E-01   4   3   4   2
  0.2989555412691674E-01   4   3   4   3
  0.4138580662801644E+00   4   4   1   1
  0.1996626792636019E-01   4   4   2   1
  0.3790526086150922E+00   4   4   2   2
 -0.9381525756404552E-02   4   4   3   1
 -0.4797711197827983E-01   4   4   3   2
  0.3029104056610063E+00   4   4   3   3
 -0.2877025734521654E-01   4   4   4   1
  0.2823510757675157E-01   4   4   4   2
  0.2167095044514095E-01   4   4   4   3
  0.3402852679925489E+00   4   4   4   4
  0.0000000000000000E+00   5   1   1   1
  0.0000000000000000E+00   5   1   2   1
  0.0000000000000000E+00   5   1   2   2
  0.0000000000000000E+00   5   1   3   1
  0.0000000000000000E+00   5   1   3   2
  0.0000000000000000E+00   5   1   3   3
  0.0000000000000000E+00   5   1   4   1
  0.0000000000000000E+00   5   1   4   2
  0.0000000000000000E+00   5   1   4   3
  0.0000000000000000E+00   5   1   4   4
  0.3377008939720961E-01   5   1   5   1
  0.0000000000000000E+00   5   2   1   1
  0.0000000000000000E+00   5   2   2   1
  0.0000000000000000E+00   5   2   2   2
  0.0000000000000000E+00   5   2   3   1
  0.0000000000000000E+00   5   2   3   2
  0.0000000000000000E+00   5   2   3   3
  0.0000000000000000E+00   5   2   4   1
  0.0000000000000000E+00   5   2   4   2
  0.0000000000000000E+00   5   2   4   3
  0.0000000000000000E+00   5   2   4   4
 -0.4932395386927944E-02   5   2   5   1
  0.9011924262476873E-02   5   2   5   2
  0.0000000000000000E+00   5   3   1   1
  0.0000000000000000E+00   5   3   2   1
  0.0000000000000000E+00   5   3   2   2
  0.0000000000000000E+00   5   3   3   1
  0.0000000000000000E+00   5   3   3   2
  0.0000000000000000E+00   5   3   3   3
  0.0000000000000000E+00   5   3   4   1
  0.0000000000000000E+00   5   3   4   2
  0.0000000000000000E+00   5   3   4   3
  0.0000000000000000E+00   5   3   4   4
  0.1184186334169183E-01   5   3   5   1
 -0.2700089600328311E-02   5   3   5   2
  0.7306395189485861E-02   5   3   5   3
  0.0000000000000000E+00   5   4   1   1
  0.0000000000000000E+00   5   4   2   1
  0.0000000000000000E+00   5   4   2   2
  0.0000000000000000E+00   5   4   3   1
  0.0000000000000000E+00   5   4   3   2
  0.0000000000000000E+00   5   4   3   3
  0.0000000000000000E+00   5   4   4   1
  0.0000000000000000E+00   5   4   4   2
  0.0000000000000000E+00   5   4   4   3
  0.0000000000000000E+00   5   4   4   4
  0.9714550520070678E-02   5   4   5   1
 -0.1797217835172121E-02   5   4   5   2
  0.6874113047066538E-02   5   4   5   3
  0.1130933043389187E-01   5   4   5   4
  0.5074877590907959E+00   5   5   1   1
  0.3456672725037391E-01   5   5   2   1
  0.4132626585297312E+00   5   5   2   2
 -0.9740551202705672E-02   5   5   3   1
 -0.6108866465920137E-01   5   5   3   2
  0.3256506643814056E+00   5   5   3   3
 -0.3738156465654463E-01   5   5   4   1
  0.2459145850270084E-01   5   5   4   2
  0.3755449100117780E-01   5   5   4   3
  0.3736492114261554E+00   5   5   4   4
  0.0000000000000000E+00   5   5   5   1
  0.0000000000000000E+00   5   5   5   2
  0.0000000000000000E+00   5   5   5   3
  0.0000000000000000E+00   5   5   5   4
  0.4662267079077800E+00   5   5   5   5
  0.4759426615031406E-01   6   1   1   1
  0.2983791752556154E-01   6   1   2   1
  0.8641314718753818E-02   6   1   2   2
 -0.2005760991569781E-01   6   1   3   1
 -0.9435549807836480E-02   6   1   3   2
  0.1002736260264514E-01   6   1   3   3
 -0.1409845886014485E-01   6   1   4   1
 -0.1060776207880075E-01   6   1   4   2
  0.1074896919244605E-01   6   1   4   3
  0.4771923855155707E-02   6   1   4   4
  0.0000000000000000E+00   6   1   5   1
  0.0000000000000000E+00   6   1   5   2
  0.0000000000000000E+00   6   1   5   3
  0.0000000000000000E+00   6   1   5   4
 -0.4647790378109707E-03   6   1   5   5
  0.3121230089025921E-01   6   1   6   1
  0.6602172150805860E-01   6   2   1   1
  0.2947337070571950E-01   6   2   2   1
 -0.2195150961042128E-01   6   2   2   2
 -0.1145507972198957E-01   6   2   3   1
 -0.1618272315387496E-01   6   2   3   2
  0.4405925423428408E-03   6   2   3   3
 -0.1125611440725408E-01   6   2   4   1
 -0.2198025972693950E-01   6   2   4   2
  0.2214213180070936E-01   6   2   4   3
  0.7311654835499439E-02   6   2   4   4
  0.0000000000000000E+00   6   2   5   1
  0.0000000000000000E+00   6   2   5   2
  0.0000000000000000E+00   6   2   5   3
  0.0000000000000000E+00   6   2   5   4
  0.3151867681721447E-01   6   2   5   5
  0.8646800256501774E-02   6   2   6   1
  0.4803080005945779E-01   6   2   6   2
 -0.6266432339572102E-01   6   3   1   1
 -0.1416898659095022E-01   6   3   2   1
 -0.4057507422860418E-01   6   3   2   2
  0.1259225086508007E-01   6   3   3   1
  0.1061477927730338E-01   6   3   3   2
 -0.2243405053445948E-01   6   3   3   3
  0.1599128216674921E-01   6   3   4   1
  0.2093044989272125E-03   6   3   4   2
 -0.3550318753441500E-02   6   3   4   3
 -0.2202679833608093E-01   6   3   4   4
  0.0000000000000000E+00   6   3   5   1
  0.0000000000000000E+00   6   3   5   2
  0.0000000000000000E+00   6   3   5   3
  0.0000000000000000E+00   6   3   5   4
 -0.3579270433135112E-01   6   3   5   5
 -0.8291359404196799E-02   6   3   6   1
 -0.6846726171898881E-02   6   3   6   2
  0.1493466751946960E-01   6   3   6   3
 -0.2348528452578282E-01   6   4   1   1
 -0.5831131439328444E-02   6   4   2   1
 -0.3297123477494669E-01   6   4   2   2
  0.9522816760244045E-02   6   4   3   1
  0.6591078841891035E-02   6   4   3   2
 -0.1240744105838035E-01   6   4   3   3
  0.1034711784601021E-01   6   4   4   1
 -0.6510127705539324E-02   6   4   4   2
  0.6220785580853209E-02   6   4   4   3
 -0.8612564835268167E-02   6   4   4   4
  0.0000000000000000E+00   6   4   5   1
  0.0000000000000000E+00   6   4   5   2
  0.0000000000000000E+00   6   4   5   3
  0.0000000000000000E+00   6   4   5   4
 -0.7652428290344162E-02   6   4   5   5
 -0.8948594177782997E-02   6   4   6   1
  0.7836208064825210E-02   6   4   6   2
  0.6589061545719010E-02   6   4   6   3
  0.1296965436359577E-01   6   4   6   4
  0.0000000000000000E+00   6   5   1   1
  0.0000000000000000E+00   6   5   2   1
  0.0000000000000000E+00   6   5   2   2
  0.0000000000000000E+00   6   5   3   1
  0.0000000000000000E+00   6   5   3   2
  0.0000000000000000E+00   6   5   3   3
  0.0000000000000000E+00   6   5   4   1
  0.0000000000000000E+00   6   5   4   2
  0.0000000000000000E+00   6   5   4   3
  0.0000000000000000E+00   6   5   4   4
 -0.1200072698548035E-01   6   5   5   1
  0.7704418764911279E-02   6   5   5   2
 -0.5107398574644127E-02   6   5   5   3
 -0.2512189805446757E-02   6   5   5   4
  0.0000000000000000E+00   6   5   5   5
  0.0000000000000000E+00   6   5   6   1
  0.0000000000000000E+00   6   5   6   2
  0.0000000000000000E+00   6   5   6   3
  0.0000000000000000E+00   6   5   6   4
  0.1352680803128079E-01   6   5   6   5
  0.4818653209729407E+00   6   6   1   1
  0.2856056003132287E-01   6   6   2   1
  0.4488654948451077E+00   6   6   2   2
 -0.2344478971520986E-01   6   6   3   1
 -0.5789553393494901E-01   6   6   3   2
  0.3326414600995292E+00   6   6   3   3
 -0.5120217132349147E-01   6   6   4   1
  0.3984378824866686E-01   6   6   4   2
  0.1602583332231089E-01   6   6   4   3
  0.3639919214462228E+00   6   6   4   4
  0.0000000000000000E+00   6   6   5   1
  0.0000000000000000E+00   6   6   5   2
  0.0000000000000000E+00   6   6   5   3
  0.0000000000000000E+00   6   6   5   4
  0.4148768544682912E+00   6   6   5   5
  0.1090551111961746E-01   6   6   6   1
 -0.2516133393367176E-02   6   6   6   2
 -0.4190128382664365E-01   6   6   6   3
 -0.2308662584274068E-01   6   6   6   4
  0.0000000000000000E+00   6   6   6   5
  0.4331904604620289E+00   6   6   6   6
  0.5359827613166128E+00   7   7   1   1
  0.4471087881218840E-01   7   7   2   1
  0.4341988561002693E+00   7   7   2   2
 -0.2149339449367746E-01   7   7   3   1
 -0.7360604706735596E-01   7   7   3   2
  0.3329905524296979E+00   7   7   3   3
 -0.5358436566038038E-01   7   7   4   1
  0.3081051450244354E-01   7   7   4   2
  0.3488359651917139E-01   7   7   4   3
  0.3804678526446372E+00   7   7   4   4
  0.2488543856731882E-01   7   7   5   1
 -0.5813793611913047E-02   7   7   5   2
  0.9094166432237885E-02   7   7   5   3
  0.7051265403796633E-02   7   7   5   4
  0.4549204541020960E+00   7   7   5   5
  0.5266551840829581E-02   7   7   6   1
  0.3224479586851743E-01   7   7   6   2
 -0.3892947996428786E-01   7   7   6   3
 -0.9821248918415404E-02   7   7   6   4
 -0.1043355374701583E-01   7   7   6   5
  0.4259113843282796E+00   7   7   6   6
  0.4873369416394923E+00   7   7   7   7
 -0.1366073329462173E+00   8   7   1   1
 -0.2726015411088679E-01   8   7   2   1
 -0.8875367230486593E-01   8   7   2   2
  0.2139636564783890E-01   8   7   3   1
  0.3700437137666322E-01   8   7   3   2
 -0.4154697397190287E-01   8   7   3   3
  0.3857895288692356E-01   8   7   4   1
 -0.1644203977646518E-01   8   7   4   2
 -0.4025672925086002E-02   8   7   4   3
 -0.4981537505045248E-01   8   7   4   4
 -0.4481082830454217E-02   8   7   5   1
 -0.6044441335482973E-03   8   7   5   2
  0.9282725128228954E-03   8   7   5   3
  0.5242084614391226E-02   8   7   5   4
 -0.7516822657804735E-01   8   7   5   5
 -0.5848630087670947E-02   8   7   6   1
 -0.1493128233810605E-01   8   7   6   2
  0.1856131366305408E-01   8   7   6   3
  0.8241979944929548E-02   8   7   6   4
  0.2267821786966245E-02   8   7   6   5
 -0.7713675085875761E-01   8   7   6   6
 -0.9675872352856371E-01   8   7   7   7
  0.6322811373082469E-01   8   7   8   7
  0.4267334222291557E+00   8   8   1   1
  0.3068893809449454E-01   8   8   2   1
  0.3602096619959148E+00   8   8   2   2
 -0.1576086270650559E-01   8   8   3   1
 -0.5112459311335182E-01   8   8   3   2
  0.2945691665710113E+00   8   8   3   3
 -0.3525298010486710E-01   8   8   4   1
  0.1913952780118033E-01   8   8   4   2
  0.2672873197362541E-01   8   8   4   3
  0.3314297521219302E+00   8   8   4   4
  0.1456053786574481E-01   8   8   5   1
 -0.4075236586102219E-02   8   8   5   2
  0.5892387510701442E-02   8   8   5   3
  0.6770280679361218E-02   8   8   5   4
  0.3688402597378551E+00   8   8   5   5
  0.5529890958421713E-02   8   8   6   1
  0.2056452754789062E-01   8   8   6   2
 -0.2348688477279770E-01   8   8   6   3
 -0.3332617892122469E-02   8   8   6   4
 -0.5224033573501401E-02   8   8   6   5
  0.3532902545661068E+00   8   8   6   6
  0.3950358006055562E+00   8   8   7   7
 -0.5783251487738955E-01   8   8   8   7
  0.3488335622181379E+00   8   8   8   8
  0.6467109843875495E-01   9   7   1   1
  0.3474183941257466E-01   9   7   2   1
 -0.2434496603815827E-01   9   7   2   2
 -0.7786165507202229E-02   9   7   3   1
 -0.7717933328646918E-02   9   7   3   2
  0.3384076473596970E-02   9   7   3   3
 -0.3051063503448859E-02   9   7   4   1
 -0.2097034474759077E-01   9   7   4   2
  0.2731455558668657E-01   9   7   4   3
  0.7295836524082652E-02   9   7   4   4
  0.8370542684630359E-02   9   7   5   1
  0.6147229979828008E-02   9   7   5   2
  0.2904955933946152E-02   9   7   5   3
  0.4148027904036532E-02   9   7   5   4
  0.2724110874113719E-01   9   7   5   5
  0.2014730971631278E-01   9   7   6   1
  0.2498552477399006E-01   9   7   6   2
 -0.3264623837459003E-02   9   7   6   3
  0.3459352960988892E-02   9   7   6   4
  0.3119286621478302E-02   9   7   6   5
  0.1594120779506478E-02   9   7   6   6
  0.2875549790233459E-01   9   7   7   7
 -0.7299437929031824E-02   9   7   8   7
  0.1667827700588103E-01   9   7   8   8
  0.5575115626959522E-01   9   7   9   7
 -0.2698462326939984E-01   9   8   1   1
 -0.1413995778352486E-01   9   8   2   1
  0.1005313217491597E-02   9   8   2   2
  0.8554683896505016E-02   9   8   3   1
 -0.1193211052618371E-02   9   8   3   2
 -0.5093117065049074E-02   9   8   3   3
  0.5054983979427968E-02   9   8   4   1
  0.1086241788260629E-01   9   8   4   2
 -0.3911389251143203E-02   9   8   4   3
  0.5590652478229432E-03   9   8   4   4
 -0.2135565917780509E-02   9   8   5   1
 -0.1504196637821312E-02   9   8   5   2
  0.1225901693035833E-02   9   8   5   3
  0.1376308282615863E-03   9   8   5   4
 -0.8455760942935171E-02   9   8   5   5
 -0.1064167796632328E-01   9   8   6   1
 -0.7123650072935667E-02   9   8   6   2
  0.5791539051786596E-02   9   8   6   3
  0.4076783638014387E-02   9   8   6   4
 -0.9315427070201062E-03   9   8   6   5
 -0.5865010719244226E-02   9   8   6   6
 -0.7329242140392787E-02   9   8   7   7
  0.4117746848785436E-02   9   8   8   7
 -0.1068502549870967E-02   9   8   8   8
 -0.1529678611977301E-01   9   8   9   7
  0.1274549409885692E-01   9   8   9   8
  0.5162733165838828E+00   9   9   1   1
  0.3500431794739477E-01   9   9   2   1
  0.4570064921603323E+00   9   9   2   2
 -0.2062777359535778E-01   9   9   3   1
 -0.6442385989322963E-01   9   9   3   2
  0.3381922526914927E+00   9   9   3   3
 -0.5095221007079376E-01   9   9   4   1
  0.3918064509121399E-01   9   9   4   2
  0.2262728089201960E-01   9   9   4   3
  0.3780586403792242E+00   9   9   4   4
  0.2258032541537916E-01   9   9   5   1
 -0.6618300031863477E-02   9   9   5   2
  0.7154662187111978E-02   9   9   5   3
  0.5684580749627768E-02   9   9   5   4
  0.4452086707542323E+00   9   9   5   5
  0.1261691863127823E-01   9   9   6   1
  0.1269976014662123E-01   9   9   6   2
 -0.4022270198281752E-01   9   9   6   3
 -0.1860279614139160E-01   9   9   6   4
 -0.6136412426582442E-02   9   9   6   5
  0.4330591806570376E+00   9   9   6   6
  0.4710944414392738E+00   9   9   7   7
 -0.8746459272120127E-01   9   9   8   7
  0.3786214068397736E+00   9   9   8   8
  0.1696624373927108E-01   9   9   9   7
 -0.1154479231461983E-01   9   9   9   8
  0.4881552977269257E+00   9   9   9   9
  0.5359827613166135E+00  10  10   1   1
  0.4471087881218862E-01  10  10   2   1
  0.4341988561002700E+00  10  10   2   2
 -0.2149339449367774E-01  10  10   3   1
 -0.7360604706735652E-01  10  10   3   2
  0.3329905524296985E+00  10  10   3   3
 -0.5358436566038050E-01  10  10   4   1
  0.3081051450244365E-01  10  10   4   2
  0.3488359651917128E-01  10  10   4   3
  0.3804678526446391E+00  10  10   4   4
 -0.2488543856731884E-01  10  10   5   1
  0.5813793611913046E-02  10  10   5   2
 -0.9094166432237876E-02  10  10   5   3
 -0.7051265403796607E-02  10  10   5   4
  0.4549204541020964E+00  10  10   5   5
  0.5266551840829470E-02  10  10   6   1
  0.3224479586851736E-01  10  10   6   2
 -0.3892947996428797E-01  10  10   6   3
 -0.9821248918415515E-02  10  10   6   4
  0.1043355374701583E-01  10  10   6   5
  0.4259113843282810E+00  10  10   6   6
  0.4478125725610990E+00  10  10   7   7
 -0.8981642605902351E-01  10  10   8   7
  0.3688253885821325E+00  10  10   8   8
  0.2101668284762431E-01  10  10   9   7
 -0.6606740168216482E-02  10  10   9   8
  0.4368117856907895E+00  10  10   9   9
  0.4873369416394930E+00  10  10  10  10
 -0.1366073329462174E+00  11  10   1   1
 -0.2726015411088679E-01  11  10   2   1
 -0.8875367230486614E-01  11  10   2   2
  0.2139636564783896E-01  11  10   3   1
  0.3700437137666356E-01  11  10   3   2
 -0.4154697397190343E-01  11  10   3   3
  0.3857895288692349E-01  11  10   4   1
 -0.1644203977646544E-01  11  10   4   2
 -0.4025672925085808E-02  11  10   4   3
 -0.4981537505045260E-01  11  10   4   4
  0.4481082830454224E-02  11  10   5   1
  0.6044441335483132E-03  11  10   5   2
 -0.9282725128229134E-03  11  10   5   3
 -0.5242084614391212E-02  11  10   5   4
 -0.7516822657804724E-01  11  10   5   5
 -0.5848630087670947E-02  11  10   6   1
 -0.1493128233810590E-01  11  10   6   2
  0.1856131366305380E-01  11  10   6   3
  0.8241979944929506E-02  11  10   6   4
 -0.2267821786966241E-02  11  10   6   5
 -0.7713675085875885E-01  11  10   6   6
 -0.8981642605902325E-01  11  10   7   7
  0.4971701279585867E-01  11  10   8   7
 -0.5934639464690382E-01  11  10   8   8
 -0.6717628291061217E-02  11  10   9   7
  0.2747099394815393E-02  11  10   9   8
 -0.8209843863047327E-01  11  10   9   9
 -0.9675872352856398E-01  11  10  10  10
  0.6322811373082460E-01  11  10  11  10
  0.4267334222291561E+00  11  11   1   1
  0.3068893809449403E-01  11  11   2   1
  0.3602096619959146E+00  11  11   2   2
 -0.1576086270650576E-01  11  11   3   1
 -0.5112459311335107E-01  11  11   3   2
  0.2945691665710106E+00  11  11   3   3
 -0.3525298010486888E-01  11  11   4   1
  0.1913952780118156E-01  11  11   4   2
  0.2672873197362774E-01  11  11   4   3
  0.3314297521219361E+00  11  11   4   4
 -0.1456053786574479E-01  11  11   5   1
  0.4075236586102212E-02  11  11   5   2
 -0.5892387510701432E-02  11  11   5   3
 -0.6770280679361256E-02  11  11   5   4
  0.3688402597378554E+00  11  11   5   5
  0.5529890958420158E-02  11  11   6   1
  0.2056452754789166E-01  11  11   6   2
 -0.2348688477279665E-01  11  11   6   3
 -0.3332617892116141E-02  11  11   6   4
  0.5224033573501388E-02  11  11   6   5
  0.3532902545661141E+00  11  11   6   6
  0.3688253885821320E+00  11  11   7   7
 -0.5934639464690425E-01  11  11   8   7
  0.3209847262616861E+00  11  11   8   8
  0.1259686917534078E-01  11  11   9   7
 -0.2588258536935090E-02  11  11   9   8
  0.3586336340941100E+00  11  11   9   9
  0.3950358006055563E+00  11  11  10  10
 -0.5783251487738894E-01  11  11  11  10
  0.3488335622181358E+00  11  11  11  11
  0.6467109843875471E-01  12  10   1   1
  0.3474183941257459E-01  12  10   2   1
 -0.2434496603815853E-01  12  10   2   2
 -0.7786165507202229E-02  12  10   3   1
 -0.7717933328646905E-02  12  10   3   2
  0.3384076473597075E-02  12  10   3   3
 -0.3051063503448852E-02  12  10   4   1
 -0.2097034474759080E-01  12  10   4   2
  0.2731455558668659E-01  12  10   4   3
  0.7295836524082326E-02  12  10   4   4
 -0.8370542684630351E-02  12  10   5   1
 -0.6147229979828014E-02  12  10   5   2
 -0.2904955933946155E-02  12  10   5   3
 -0.4148027904036560E-02  12  10   5   4
  0.2724110874113708E-01  12  10   5   5
  0.2014730971631273E-01  12  10   6   1
  0.2498552477399006E-01  12  10   6   2
 -0.3264623837458742E-02  12  10   6   3
  0.3459352960988885E-02  12  10   6   4
 -0.3119286621478324E-02  12  10   6   5
  0.1594120779506068E-02  12  10   6   6
  0.2101668284762404E-01  12  10   7   7
 -0.6717628291060953E-02  12  10   8   7
  0.1259686917534046E-01  12  10   8   8
  0.3704261512603029E-01  12  10   9   7
 -0.1095047984499534E-01  12  10   9   8
  0.1099533463627057E-01  12  10   9   9
  0.2875549790233446E-01  12  10  10  10
 -0.7299437929031902E-02  12  10  11  10
  0.1667827700588120E-01  12  10  11  11
  0.5575115626959520E-01  12  10  12  10
 -0.2698462326939988E-01  12  11   1   1
 -0.1413995778352476E-01  12  11   2   1
  0.1005313217491411E-02  12  11   2   2
  0.8554683896505069E-02  12  11   3   1
 -0.1193211052618385E-02  12  11   3   2
 -0.5093117065049068E-02  12  11   3   3
  0.5054983979428385E-02  12  11   4   1
  0.1086241788260597E-01  12  11   4   2
 -0.3911389251143423E-02  12  11   4   3
  0.5590652478214835E-03  12  11   4   4
  0.2135565917780510E-02  12  11   5   1
  0.1504196637821296E-02  12  11   5   2
 -0.1225901693035833E-02  12  11   5   3
 -0.1376308282616225E-03  12  11   5   4
 -0.8455760942935146E-02  12  11   5   5
 -0.1064167796632299E-01  12  11   6   1
 -0.7123650072935868E-02  12  11   6   2
  0.5791539051786485E-02  12  11   6   3
  0.4076783638013186E-02  12  11   6   4
  0.9315427070200832E-03  12  11   6   5
 -0.5865010719244072E-02  12  11   6   6
 -0.6606740168216500E-02  12  11   7   7
  0.2747099394815094E-02  12  11   8   7
 -0.2588258536934724E-02  12  11   8   8
 -0.1095047984499524E-01  12  11   9   7
  0.8042982866118594E-02  12  11   9   8
 -0.8332469975433871E-02  12  11   9   9
 -0.7329242140392924E-02  12  11  10  10
  0.4117746848785696E-02  12  11  11  10
 -0.1068502549871517E-02  12  11  11  11
 -0.1529678611977283E-01  12  11  12  10
  0.1274549409885668E-01  12  11  12  11
  0.5162733165838825E+00  12  12   1   1
  0.3500431794739481E-01  12  12   2   1
  0.4570064921603324E+00  12  12   2   2
 -0.2062777359535772E-01  12  12   3   1
 -0.6442385989322980E-01  12  12   3   2
  0.3381922526914929E+00  12  12   3   3
 -0.5095221007079309E-01  12  12   4   1
  0.3918064509121444E-01  12  12   4   2
  0.2262728089201904E-01  12  12   4   3
  0.3780586403792216E+00  12  12   4   4
 -0.2258032541537914E-01  12  12   5   1
  0.6618300031863490E-02  12  12   5   2
 -0.7154662187111974E-02  12  12   5   3
 -0.5684580749627756E-02  12  12   5   4
  0.4452086707542322E+00  12  12   5   5
  0.1261691863127845E-01  12  12   6   1
  0.1269976014662122E-01  12  12   6   2
 -0.4022270198281758E-01  12  12   6   3
 -0.1860279614139349E-01  12  12   6   4
  0.6136412426582467E-02  12  12   6   5
  0.4330591806570364E+00  12  12   6   6
  0.4368117856907889E+00  12  12   7   7
 -0.8209843863047300E-01  12  12   8   7
  0.3586336340941101E+00  12  12   8   8
  0.1099533463627078E-01  12  12   9   7
 -0.8332469975433868E-02  12  12   9   8
  0.4461096127781538E+00  12  12   9   9
  0.4710944414392739E+00  12  12  10  10
 -0.8746459272120111E-01  12  12  11  10
  0.3786214068397733E+00  12  12  11  11
  0.1696624373927083E-01  12  12  12  10
 -0.1154479231461986E-01  12  12  12  11
  0.4881552977269255E+00  12  12  12  12
  0.5074877590907955E+00  13  13   1   1
  0.3456672725037403E-01  13  13   2   1
  0.4132626585297305E+00  13  13   2   2
 -0.9740551202705505E-02  13  13   3   1
 -0.6108866465920110E-01  13  13   3   2
  0.3256506643814058E+00  13  13   3   3
 -0.3738156465654385E-01  13  13   4   1
  0.2459145850270061E-01  13  13   4   2
  0.3755449100117736E-01  13  13   4   3
  0.3736492114261520E+00  13  13   4   4
  0.0000000000000000E+00  13  13   5   1
  0.0000000000000000E+00  13  13   5   2
  0.0000000000000000E+00  13  13   5   3
  0.0000000000000000E+00  13  13   5   4
  0.4466894703525429E+00  13  13   5   5
 -0.4647790378102812E-03  13  13   6   1
  0.3151867681721406E-01  13  13   6   2
 -0.3579270433135062E-01  13  13   6   3
 -0.7652428290346736E-02  13  13   6   4
  0.0000000000000000E+00  13  13   6   5
  0.4148768544682905E+00  13  13   6   6
  0.4549204541020956E+00  13  13   7   7
 -0.7516822657804700E-01  13  13   8   7
  0.3688402597378551E+00  13  13   8   8
  0.2724110874113728E-01  13  13   9   7
 -0.8455760942935334E-02  13  13   9   8
  0.4452086707542319E+00  13  13   9   9
  0.4549204541020959E+00  13  13  10  10
 -0.7516822657804711E-01  13  13  11  10
  0.3688402597378552E+00  13  13  11  11
  0.2724110874113708E-01  13  13  12  10
 -0.8455760942935195E-02  13  13  12  11
  0.4452086707542319E+00  13  13  12  12
  0.4662267079077794E+00  13  13  13  13
  0.4376537675221263E+00  14  14   1   1
 -0.7370215054521706E-03  14  14   2   1
  0.4742948798484731E+00  14  14   2   2
 -0.1190093117805294E-01  14  14   3   1
 -0.5551651405981739E-01  14  14   3   2
  0.3323384462837254E+00  14  14   3   3
 -0.4617091583746913E-01  14  14   4   1
  0.6279208782419854E-01  14  14   4   2
 -0.6712043188499384E-02  14  14   4   3
  0.3660152783154921E+00  14  14   4   4
  0.0000000000000000E+00  14  14   5   1
  0.0000000000000000E+00  14  14   5   2
  0.0000000000000000E+00  14  14   5   3
  0.0000000000000000E+00  14  14   5   4
  0.4039742329392478E+00  14  14   5   5
 -0.7980780857320791E-02  14  14   6   1
 -0.2190719223471535E-01  14  14   6   2
 -0.3366549194402840E-01  14  14   6   3
 -0.2385761323201074E-01  14  14   6   4
  0.0000000000000000E+00  14  14   6   5
  0.4260831587226340E+00  14  14   6   6
  0.4167817819987204E+00  14  14   7   7
 -0.7477308272861688E-01  14  14   8   7
  0.3474880870699586E+00  14  14   8   8
 -0.3036355773508699E-01  14  14   9   7
  0.5134438983395481E-02  14  14   9   8
  0.4354731561486596E+00  14  14   9   9
  0.4167817819987206E+00  14  14  10  10
 -0.7477308272861677E-01  14  14  11  10
  0.3474880870699588E+00  14  14  11  11
 -0.3036355773508717E-01  14  14  12  10
  0.5134438983395412E-02  14  14  12  11
  0.4354731561486595E+00  14  14  12  12
  0.4039742329392474E+00  14  14  13  13
  0.4571362708938146E+00  14  14  14  14
  0.6981689675611054E-01  15  14   1   1
  0.2088907714824993E-01  15  14   2   1
 -0.3681538176302338E-02  15  14   2   2
 -0.5077408342329830E-02  15  14   3   1
 -0.1597184849779054E-01  15  14   3   2
  0.5106718402608446E-02  15  14   3   3
 -0.1020977463623584E-01  15  14   4   1
 -0.1125395646953738E-01  15  14   4   2
  0.2048656370433049E-01  15  14   4   3
  0.1752325384662332E-01  15  14   4   4
  0.0000000000000000E+00  15  14   5   1
  0.0000000000000000E+00  15  14   5   2
  0.0000000000000000E+00  15  14   5   3
  0.0000000000000000E+00  15  14   5   4
  0.4445811661489849E-01  15  14   5   5
 -0.6279175209231852E-03  15  14   6   1
  0.3328455465193941E-01  15  14   6   2
 -0.6125150637202363E-02  15  14   6   3
  0.8134000611320490E-02  15  14   6   4
  0.0000000000000000E+00  15  14   6   5
  0.1513949216122763E-01  15  14   6   6
  0.4606954141935970E-01  15  14   7   7
 -0.1996219307634210E-01  15  14   8   7
  0.2964418286281548E-01  15  14   8   8
  0.2178694477623812E-01  15  14   9   7
 -0.3978097381559736E-02  15  14   9   8
  0.2514424679867334E-01  15  14   9   9
  0.4606954141935977E-01  15  14  10  10
 -0.1996219307634213E-01  15  14  11  10
  0.2964418286281546E-01  15  14  11  11
  0.2178694477623808E-01  15  14  12  10
 -0.3978097381559697E-02  15  14  12  11
  0.2514424679867332E-01  15  14  12  12
  0.4445811661489818E-01  15  14  13  13
 -0.9506921213138331E-03  15  14  14  14
  0.3147812710169758E-01  15  14  15  14
  0.6487259235556071E+00  15  15   1   1
  0.8325063375785663E-01  15  15   2   1
  0.5026442452157416E+00  15  15   2   2
 -0.5787126521463709E-01  15  15   3   1
 -0.1048647607357850E+00  15  15   3   2
  0.3699108629516918E+00  15  15   3   3
 -0.9510008090725253E-01  15  15   4   1
  0.3515195793686487E-01  15  15   4   2
  0.3654668233972314E-01  15  15   4   3
  0.4091417967352445E+00  15  15   4   4
  0.0000000000000000E+00  15  15   5   1
  0.0000000000000000E+00  15  15   5   2
  0.0000000000000000E+00  15  15   5   3
  0.0000000000000000E+00  15  15   5   4
  0.4853278442165436E+00  15  15   5   5
  0.2544005486776357E-01  15  15   6   1
  0.3787496882972399E-01  15  15   6   2
 -0.5670850539388456E-01  15  15   6   3
 -0.2417232564055638E-01  15  15   6   4
  0.0000000000000000E+00  15  15   6   5
  0.4802588422010561E+00  15  15   6   6
  0.5210484905887123E+00  15  15   7   7
 -0.1382945879490211E+00  15  15   8   7
  0.4204468369777847E+00  15  15   8   8
  0.3251145550989737E-01  15  15   9   7
 -0.1496311600446734E-01  15  15   9   8
  0.4999000525241941E+00  15  15   9   9
  0.5210484905887128E+00  15  15  10  10
 -0.1382945879490212E+00  15  15  11  10
  0.4204468369777848E+00  15  15  11  11
  0.3251145550989701E-01  15  15  12  10
 -0.1496311600446740E-01  15  15  12  11
  0.4999000525241937E+00  15  15  12  12
  0.4853278442165438E+00  15  15  13  13
  0.4608623368119123E+00  15  15  14  14
  0.5396204583958542E-01  15  15  15  14
  0.6463537728427384E+00  15  15  15  15
  0.5860260918724212E-01  16  14   1   1
 -0.1644818610134225E-02  16  14   2   1
  0.7742321975831579E-01  16  14   2   2
 -0.1598214024217080E-02  16  14   3   1
 -0.2749547744744236E-01  16  14   3   2
  0.2129524574839132E-01  16  14   3   3
 -0.1521052971161362E-01  16  14   4   1
  0.2910498632527918E-01  16  14   4   2
  0.2282151597524373E-03  16  14   4   3
  0.4302319371054038E-01  16  14   4   4
  0.0000000000000000E+00  16  14   5   1
  0.0000000000000000E+00  16  14   5   2
  0.0000000000000000E+00  16  14   5   3
  0.0000000000000000E+00  16  14   5   4
  0.4747284042425481E-01  16  14   5   5
 -0.2449688606756789E-02  16  14   6   1
 -0.9247685803510902E-02  16  14   6   2
 -0.5359164118140490E-02  16  14   6   3
 -0.7675889064347283E-02  16  14   6   4
  0.0000000000000000E+00  16  14   6   5
  0.5630249004994823E-01  16  14   6   6
  0.5472261657880997E-01  16  14   7   7
 -0.2372963869085987E-01  16  14   8   7
  0.3712226129169834E-01  16  14   8   8
 -0.1119943616972007E-01  16  14   9   7
  0.6948472441059262E-02  16  14   9   8