 &FCI NORB= 26,NELEC=  8,MS2= 0,
  ORBSYM=1,1,1,1,1,1,2,2,2,3,3,3,4,5,5,5,5,5,5,6,6,6,7,7,7,8,
  ISYM=1,
 /
  6.9488475566e-01    1    1    1    1
  1.0826425382e-01    2    1    1    1
  1.0826425382e-01    1    2    1    1
  4.7951603608e-02    2    1    2    1
  4.7951603608e-02    1    2    1    2
  4.7951603608e-02    1    2    2    1
  4.7951603608e-02    2    1    1    2
  4.8253519851e-01    2    2    1    1
  1.7397097722e-02    2    2    2    1
  1.7397097722e-02    2    2    1    2
  5.0559923614e-01    2    2    2    2
  2.5115206013e-02    3    1    1    3
  2.5115206013e-02    1    3    3    1
  1.5589326107e-02    3    2    1    3
  1.5589326107e-02    2    3    3    1
  4.1280475453e-02    3    2    2    3
  4.1280475453e-02    2    3    3    2
  3.6841205168e-01    3    3    1    1
  2.0017146238e-02    3    3    2    1
  2.0017146238e-02    3    3    1    2
  3.4753376114e-01    3    3    2    2
  3.0103611186e-01    3    3    3    3
  2.4456803200e-02    4    1    1    3
  2.4456803200e-02    1    4    3    1
  2.7527360355e-02    4    1    2    3
  2.7527360355e-02    1    4    3    2
  3.3696618051e-02    4    1    1    4
  3.3696618051e-02    1    4    4    1
  5.9572631016e-03    4    2    1    3
  5.9572631016e-03    2    4    3    1
 -1.5800102571e-02    4    2    2    3
 -1.5800102571e-02    2    4    3    2
 -7.8104376659e-03    4    2    1    4
 -7.8104376659e-03    2    4    4    1
  3.4256045405e-02    4    2    2    4
  3.4256045405e-02    2    4    4    2
  5.8532423401e-02    4    3    1    1
  5.8532423401e-02    3    4    1    1
  2.2088765673e-02    4    3    2    1
  2.2088765673e-02    3    4    1    2
  2.2088765673e-02    3    4    2    1
  2.2088765673e-02    4    3    1    2
 -4.5881189153e-03    4    3    2    2
 -4.5881189153e-03    3    4    2    2
  4.0903196076e-03    4    3    3    3
  4.0903196076e-03    3    4    3    3
  2.9895554127e-02    4    3    4    3
  2.9895554127e-02    3    4    3    4
  2.9895554127e-02    3    4    4    3
  2.9895554127e-02    4    3    3    4
  4.1385806628e-01    4    4    1    1
  1.9966267926e-02    4    4    2    1
  1.9966267926e-02    4    4    1    2
  3.7905260862e-01    4    4    2    2
  3.0291040566e-01    4    4    3    3
  2.1670950445e-02    4    4    4    3
  2.1670950445e-02    4    4    3    4
  3.4028526799e-01    4    4    4    4
  0.0000000000e+00    5    1    1    3
  0.0000000000e+00    1    5    3    1
  0.0000000000e+00    5    1    2    3
  0.0000000000e+00    1    5    3    2
  0.0000000000e+00    5    1    1    4
  0.0000000000e+00    1    5    4    1
  0.0000000000e+00    5    1    2    4
  0.0000000000e+00    1    5    4    2
  3.3770089397e-02    5    1    1    5
  3.3770089397e-02    1    5    5    1
  0.0000000000e+00    5    2    1    3
  0.0000000000e+00    2    5    3    1
  0.0000000000e+00    5    2    2    3
  0.0000000000e+00    2    5    3    2
  0.0000000000e+00    5    2    1    4
  0.0000000000e+00    2    5    4    1
  0.0000000000e+00    5    2    2    4
  0.0000000000e+00    2    5    4    2
 -4.9323953869e-03    5    2    1    5
 -4.9323953869e-03    2    5    5    1
  9.0119242625e-03    5    2    2    5
  9.0119242625e-03    2    5    5    2
  0.0000000000e+00    5    3    1    1
  0.0000000000e+00    3    5    1    1
  0.0000000000e+00    5    3    2    1
  0.0000000000e+00    3    5    1    2
  0.0000000000e+00    3    5    2    1
  0.0000000000e+00    5    3    1    2
  0.0000000000e+00    5    3    2    2
  0.0000000000e+00    3    5    2    2
  0.0000000000e+00    5    3    3    3
  0.0000000000e+00    3    5    3    3
  0.0000000000e+00    5    3    4    3
  0.0000000000e+00    3    5    3    4
  0.0000000000e+00    3    5    4    3
  0.0000000000e+00    5    3    3    4
  0.0000000000e+00    5    3    4    4
  0.0000000000e+00    3    5    4    4
  7.3063951895e-03    5    3    5    3
  7.3063951895e-03    3    5    3    5
  7.3063951895e-03    3    5    5    3
  7.3063951895e-03    5    3    3    5
  0.0000000000e+00    5    4    1    1
  0.0000000000e+00    4    5    1    1
  0.0000000000e+00    5    4    2    1
  0.0000000000e+00    4    5    1    2
  0.0000000000e+00    4    5    2    1
  0.0000000000e+00    5    4    1    2
  0.0000000000e+00    5    4    2    2
  0.0000000000e+00    4    5    2    2
  0.0000000000e+00    5    4    3    3
  0.0000000000e+00    4    5    3    3
  0.0000000000e+00    5    4    4    3
  0.0000000000e+00    4    5    3    4
  0.0000000000e+00    4    5    4    3
  0.0000000000e+00    5    4    3    4
  0.0000000000e+00    5    4    4    4
  0.0000000000e+00    4    5    4    4
  6.8741130471e-03    5    4    5    3
  6.8741130471e-03    4    5    3    5
  6.8741130471e-03    4    5    5    3
  6.8741130471e-03    5    4    3    5
  1.1309330434e-02    5    4    5    4
  1.1309330434e-02    4    5    4    5
  1.1309330434e-02    4    5    5    4
  1.1309330434e-02    5    4    4    5
  5.0748775909e-01    5    5    1    1
  3.4566727250e-02    5    5    2    1
  3.4566727250e-02    5    5    1    2
  4.1326265853e-01    5    5    2    2
  3.2565066438e-01    5    5    3    3
  3.7554491001e-02    5    5    4    3
  3.7554491001e-02    5    5    3    4
  3.7364921143e-01    5    5    4    4
  0.0000000000e+00    5    5    5    3
  0.0000000000e+00    5    5    3    5
  0.0000000000e+00    5    5    5    4
  0.0000000000e+00    5    5    4    5
  4.6622670791e-01    5    5    5    5
 -2.0057609916e-02    6    1    1    3
 -2.0057609916e-02    1    6    3    1
 -9.4355498078e-03    6    1    2    3
 -9.4355498078e-03    1    6    3    2
 -1.4098458860e-02    6    1    1    4
 -1.4098458860e-02    1    6    4    1
 -1.0607762079e-02    6    1    2    4
 -1.0607762079e-02    1    6    4    2
  0.0000000000e+00    6    1    1    5
  0.0000000000e+00    1    6    5    1
  0.0000000000e+00    6    1    2    5
  0.0000000000e+00    1    6    5    2
  3.1212300890e-02    6    1    1    6
  3.1212300890e-02    1    6    6    1
 -1.1455079722e-02    6    2    1    3
 -1.1455079722e-02    2    6    3    1
 -1.6182723154e-02    6    2    2    3
 -1.6182723154e-02    2    6    3    2
 -1.1256114407e-02    6    2    1    4
 -1.1256114407e-02    2    6    4    1
 -2.1980259727e-02    6    2    2    4
 -2.1980259727e-02    2    6    4    2
  0.0000000000e+00    6    2    1    5
  0.0000000000e+00    2    6    5    1
  0.0000000000e+00    6    2    2    5
  0.0000000000e+00    2    6    5    2
  8.6468002565e-03    6    2    1    6
  8.6468002565e-03    2    6    6    1
  4.8030800059e-02    6    2    2    6
  4.8030800059e-02    2    6    6    2
 -6.2664323396e-02    6    3    1    1
 -6.2664323396e-02    3    6    1    1
 -1.4168986591e-02    6    3    2    1
 -1.4168986591e-02    3    6    1    2
 -1.4168986591e-02    3    6    2    1
 -1.4168986591e-02    6    3    1    2
 -4.0575074229e-02    6    3    2    2
 -4.0575074229e-02    3    6    2    2
 -2.2434050534e-02    6    3    3    3
 -2.2434050534e-02    3    6    3    3
 -3.5503187534e-03    6    3    4    3
 -3.5503187534e-03    3    6    3    4
 -3.5503187534e-03    3    6    4    3
 -3.5503187534e-03    6    3    3    4
 -2.2026798336e-02    6    3    4    4
 -2.2026798336e-02    3    6    4    4
  0.0000000000e+00    6    3    5    3
  0.0000000000e+00    3    6    3    5
  0.0000000000e+00    3    6    5    3
  0.0000000000e+00    6    3    3    5
  0.0000000000e+00    6    3    5    4
  0.0000000000e+00    3    6    4    5
  0.0000000000e+00    3    6    5    4
  0.0000000000e+00    6    3    4    5
 -3.5792704331e-02    6    3    5    5
 -3.5792704331e-02    3    6    5    5
  1.4934667519e-02    6    3    6    3
  1.4934667519e-02    3    6    3    6
  1.4934667519e-02    3    6    6    3
  1.4934667519e-02    6    3    3    6
 -2.3485284526e-02    6    4    1    1
 -2.3485284526e-02    4    6    1    1
 -5.8311314393e-03    6    4    2    1
 -5.8311314393e-03    4    6    1    2
 -5.8311314393e-03    4    6    2    1
 -5.8311314393e-03    6    4    1    2
 -3.2971234775e-02    6    4    2    2
 -3.2971234775e-02    4    6    2    2
 -1.2407441058e-02    6    4    3    3
 -1.2407441058e-02    4    6    3    3
  6.2207855809e-03    6    4    4    3
  6.2207855809e-03    4    6    3    4
  6.2207855809e-03    4    6    4    3
  6.2207855809e-03    6    4    3    4
 -8.6125648353e-03    6    4    4    4
 -8.6125648353e-03    4    6    4    4
  0.0000000000e+00    6    4    5    3
  0.0000000000e+00    4    6    3    5
  0.0000000000e+00    4    6    5    3
  0.0000000000e+00    6    4    3    5
  0.0000000000e+00    6    4    5    4
  0.0000000000e+00    4    6    4    5
  0.0000000000e+00    4    6    5    4
  0.0000000000e+00    6    4    4    5
 -7.6524282903e-03    6    4    5    5
 -7.6524282903e-03    4    6    5    5
  6.5890615457e-03    6    4    6    3
  6.5890615457e-03    4    6    3    6
  6.5890615457e-03    4    6    6    3
  6.5890615457e-03    6    4    3    6
  1.2969654364e-02    6    4    6    4
  1.2969654364e-02    4    6    4    6
  1.2969654364e-02    4    6    6    4
  1.2969654364e-02    6    4    4    6
  0.0000000000e+00    6    5    1    1
  0.0000000000e+00    5    6    1    1
  0.0000000000e+00    6    5    2    1
  0.0000000000e+00    5    6    1    2
  0.0000000000e+00    5    6    2    1
  0.0000000000e+00    6    5    1    2
  0.0000000000e+00    6    5    2    2
  0.0000000000e+00    5    6    2    2
  0.0000000000e+00    6    5    3    3
  0.0000000000e+00    5    6    3    3
  0.0000000000e+00    6    5    4    3
  0.0000000000e+00    5    6    3    4
  0.0000000000e+00    5    6    4    3
  0.0000000000e+00    6    5    3    4
  0.0000000000e+00    6    5    4    4
  0.0000000000e+00    5    6    4    4
 -5.1073985746e-03    6    5    5    3
 -5.1073985746e-03    5    6    3    5
 -5.1073985746e-03    5    6    5    3
 -5.1073985746e-03    6    5    3    5
 -2.5121898054e-03    6    5    5    4
 -2.5121898054e-03    5    6    4    5
 -2.5121898054e-03    5    6    5    4
 -2.5121898054e-03    6    5    4    5
  0.0000000000e+00    6    5    5    5
  0.0000000000e+00    5    6    5    5
  0.0000000000e+00    6    5    6    3
  0.0000000000e+00    5    6    3    6
  0.0000000000e+00    5    6    6    3
  0.0000000000e+00    6    5    3    6
  0.0000000000e+00    6    5    6    4
  0.0000000000e+00    5    6    4    6
  0.0000000000e+00    5    6    6    4
  0.0000000000e+00    6    5    4    6
  1.3526808031e-02    6    5    6    5
  1.3526808031e-02    5    6    5    6
  1.3526808031e-02    5    6    6    5
  1.3526808031e-02    6    5    5    6
  4.8186532097e-01    6    6    1    1
  2.8560560031e-02    6    6    2    1
  2.8560560031e-02    6    6    1    2
  4.4886549485e-01    6    6    2    2
  3.3264146010e-01    6    6    3    3
  1.6025833322e-02    6    6    4    3
  1.6025833322e-02    6    6    3    4
  3.6399192145e-01    6    6    4    4
  0.0000000000e+00    6    6    5    3
  0.0000000000e+00    6    6    3    5
  0.0000000000e+00    6    6    5    4
  0.0000000000e+00    6    6    4    5
  4.1487685447e-01    6    6    5    5
 -4.1901283827e-02    6    6    6    3
 -4.1901283827e-02    6    6    3    6
 -2.3086625843e-02    6    6    6    4
 -2.3086625843e-02    6    6    4    6
  0.0000000000e+00    6    6    6    5
  0.0000000000e+00    6    6    5    6
  4.3319046046e-01    6    6    6    6
  5.3598276132e-01    7    7    1    1
  4.4710878812e-02    7    7    2    1
  4.4710878812e-02    7    7    1    2
  4.3419885610e-01    7    7    2    2
  3.3299055243e-01    7    7    3    3
  3.4883596519e-02    7    7    4    3
  3.4883596519e-02    7    7    3    4
  3.8046785264e-01    7    7    4    4
  9.0941664322e-03    7    7    5    3
  9.0941664322e-03    7    7    3    5
  7.0512654038e-03    7    7    5    4
  7.0512654038e-03    7    7    4    5
  4.5492045410e-01    7    7    5    5
 -3.8929479964e-02    7    7    6    3
 -3.8929479964e-02    7    7    3    6
 -9.8212489184e-03    7    7    6    4
 -9.8212489184e-03    7    7    4    6
 -1.0433553747e-02    7    7    6    5
 -1.0433553747e-02    7    7    5    6
  4.2591138433e-01    7    7    6    6
  4.8733694164e-01    7    7    7    7
  2.1396365648e-02    8    7    1    3
  2.1396365648e-02    7    8    3    1
  3.7004371377e-02    8    7    2    3
  3.7004371377e-02    7    8    3    2
  3.8578952887e-02    8    7    1    4
  3.8578952887e-02    7    8    4    1
 -1.6442039776e-02    8    7    2    4
 -1.6442039776e-02    7    8    4    2
 -4.4810828305e-03    8    7    1    5
 -4.4810828305e-03    7    8    5    1
 -6.0444413355e-04    8    7    2    5
 -6.0444413355e-04    7    8    5    2
 -5.8486300877e-03    8    7    1    6
 -5.8486300877e-03    7    8    6    1
 -1.4931282338e-02    8    7    2    6
 -1.4931282338e-02    7    8    6    2
  6.3228113731e-02    8    7    7    8
  6.3228113731e-02    7    8    8    7
  4.2673342223e-01    8    8    1    1
  3.0688938094e-02    8    8    2    1
  3.0688938094e-02    8    8    1    2
  3.6020966200e-01    8    8    2    2
  2.9456916657e-01    8    8    3    3
  2.6728731974e-02    8    8    4    3
  2.6728731974e-02    8    8    3    4
  3.3142975212e-01    8    8    4    4
  5.8923875107e-03    8    8    5    3
  5.8923875107e-03    8    8    3    5
  6.7702806794e-03    8    8    5    4
  6.7702806794e-03    8    8    4    5
  3.6884025974e-01    8    8    5    5
 -2.3486884773e-02    8    8    6    3
 -2.3486884773e-02    8    8    3    6
 -3.3326178921e-03    8    8    6    4
 -3.3326178921e-03    8    8    4    6
 -5.2240335735e-03    8    8    6    5
 -5.2240335735e-03    8    8    5    6
  3.5329025457e-01    8    8    6    6
  3.9503580061e-01    8    8    7    7
  3.4883356222e-01    8    8    8    8
 -7.7861655072e-03    9    7    1    3
 -7.7861655072e-03    7    9    3    1
 -7.7179333286e-03    9    7    2    3
 -7.7179333286e-03    7    9    3    2
 -3.0510635034e-03    9    7    1    4
 -3.0510635034e-03    7    9    4    1
 -2.0970344748e-02    9    7    2    4
 -2.0970344748e-02    7    9    4    2
  8.3705426846e-03    9    7    1    5
  8.3705426846e-03    7    9    5    1
  6.1472299798e-03    9    7    2    5
  6.1472299798e-03    7    9    5    2
  2.0147309716e-02    9    7    1    6
  2.0147309716e-02    7    9    6    1
  2.4985524774e-02    9    7    2    6
  2.4985524774e-02    7    9    6    2
 -7.2994379290e-03    9    7    7    8
 -7.2994379290e-03    7    9    8    7
  5.5751156270e-02    9    7    7    9
  5.5751156270e-02    7    9    9    7
 -2.6984623269e-02    9    8    1    1
 -2.6984623269e-02    8    9    1    1
 -1.4139957784e-02    9    8    2    1
 -1.4139957784e-02    8    9    1    2
 -1.4139957784e-02    8    9    2    1
 -1.4139957784e-02    9    8    1    2
  1.0053132175e-03    9    8    2    2
  1.0053132175e-03    8    9    2    2
 -5.0931170650e-03    9    8    3    3
 -5.0931170650e-03    8    9    3    3
 -3.9113892511e-03    9    8    4    3
 -3.9113892511e-03    8    9    3    4
 -3.9113892511e-03    8    9    4    3
 -3.9113892511e-03    9    8    3    4
  5.5906524782e-04    9    8    4    4
  5.5906524782e-04    8    9    4    4
  1.2259016930e-03    9    8    5    3
  1.2259016930e-03    8    9    3    5
  1.2259016930e-03    8    9    5    3
  1.2259016930e-03    9    8    3    5
  1.3763082826e-04    9    8    5    4
  1.3763082826e-04    8    9    4    5
  1.3763082826e-04    8    9    5    4
  1.3763082826e-04    9    8    4    5
 -8.4557609429e-03    9    8    5    5
 -8.4557609429e-03    8    9    5    5
  5.7915390518e-03    9    8    6    3
  5.7915390518e-03    8    9    3    6
  5.7915390518e-03    8    9    6    3
  5.7915390518e-03    9    8    3    6
  4.0767836380e-03    9    8    6    4
  4.0767836380e-03    8    9    4    6
  4.0767836380e-03    8    9    6    4
  4.0767836380e-03    9    8    4    6
 -9.3154270702e-04    9    8    6    5
 -9.3154270702e-04    8    9    5    6
 -9.3154270702e-04    8    9    6    5
 -9.3154270702e-04    9    8    5    6
 -5.8650107192e-03    9    8    6    6
 -5.8650107192e-03    8    9    6    6
 -7.3292421404e-03    9    8    7    7
 -7.3292421404e-03    8    9    7    7
 -1.0685025499e-03    9    8    8    8
 -1.0685025499e-03    8    9    8    8
  1.2745494099e-02    9    8    9    8
  1.2745494099e-02    8    9    8    9
  1.2745494099e-02    8    9    9    8
  1.2745494099e-02    9    8    8    9
  5.1627331658e-01    9    9    1    1
  3.5004317947e-02    9    9    2    1
  3.5004317947e-02    9    9    1    2
  4.5700649216e-01    9    9    2    2
  3.3819225269e-01    9    9    3    3
  2.2627280892e-02    9    9    4    3
  2.2627280892e-02    9    9    3    4
  3.7805864038e-01    9    9    4    4
  7.1546621871e-03    9    9    5    3
  7.1546621871e-03    9    9    3    5
  5.6845807496e-03    9    9    5    4
  5.6845807496e-03    9    9    4    5
  4.4520867075e-01    9    9    5    5
 -4.0222701983e-02    9    9    6    3
 -4.0222701983e-02    9    9    3    6
 -1.8602796141e-02    9    9    6    4
 -1.8602796141e-02    9    9    4    6
 -6.1364124266e-03    9    9    6    5
 -6.1364124266e-03    9    9    5    6
  4.3305918066e-01    9    9    6    6
  4.7109444144e-01    9    9    7    7
  3.7862140684e-01    9    9    8    8
 -1.1544792315e-02    9    9    9    8
 -1.1544792315e-02    9    9    8    9
  4.8815529773e-01    9    9    9    9
  5.3598276132e-01   10   10    1    1
  4.4710878812e-02   10   10    2    1
  4.4710878812e-02   10   10    1    2
  4.3419885610e-01   10   10    2    2
  3.3299055243e-01   10   10    3    3
  3.4883596519e-02   10   10    4    3
  3.4883596519e-02   10   10    3    4
  3.8046785264e-01   10   10    4    4
 -9.0941664322e-03   10   10    5    3
 -9.0941664322e-03   10   10    3    5
 -7.0512654038e-03   10   10    5    4
 -7.0512654038e-03   10   10    4    5
  4.5492045410e-01   10   10    5    5
 -3.8929479964e-02   10   10    6    3
 -3.8929479964e-02   10   10    3    6
 -9.8212489184e-03   10   10    6    4
 -9.8212489184e-03   10   10    4    6
  1.0433553747e-02   10   10    6    5
  1.0433553747e-02   10   10    5    6
  4.2591138433e-01   10   10    6    6
  4.4781257256e-01   10   10    7    7
  3.6882538858e-01   10   10    8    8
 -6.6067401682e-03   10   10    9    8
 -6.6067401682e-03   10   10    8    9
  4.3681178569e-01   10   10    9    9
  4.8733694164e-01   10   10   10   10
  2.1396365648e-02   11   10    1    3
  2.1396365648e-02   10   11    3    1
  3.7004371377e-02   11   10    2    3
  3.7004371377e-02   10   11    3    2
  3.8578952887e-02   11   10    1    4
  3.8578952887e-02   10   11    4    1
 -1.6442039776e-02   11   10    2    4
 -1.6442039776e-02   10   11    4    2
  4.4810828305e-03   11   10    1    5
  4.4810828305e-03   10   11    5    1
  6.0444413355e-04   11   10    2    5
  6.0444413355e-04   10   11    5    2
 -5.8486300877e-03   11   10    1    6
 -5.8486300877e-03   10   11    6    1
 -1.4931282338e-02   11   10    2    6
 -1.4931282338e-02   10   11    6    2
  4.9717012796e-02   11   10    7    8
  4.9717012796e-02   10   11    8    7
 -6.7176282911e-03   11   10    7    9
 -6.7176282911e-03   10   11    9    7
  6.3228113731e-02   11   10   10   11
  6.3228113731e-02   10   11   11   10
  4.2673342223e-01   11   11    1    1
  3.0688938094e-02   11   11    2    1
  3.0688938094e-02   11   11    1    2
  3.6020966200e-01   11   11    2    2
  2.9456916657e-01   11   11    3    3
  2.6728731974e-02   11   11    4    3
  2.6728731974e-02   11   11    3    4
  3.3142975212e-01   11   11    4    4
 -5.8923875107e-03   11   11    5    3
 -5.8923875107e-03   11   11    3    5
 -6.7702806794e-03   11   11    5    4
 -6.7702806794e-03   11   11    4    5
  3.6884025974e-01   11   11    5    5
 -2.3486884773e-02   11   11    6    3
 -2.3486884773e-02   11   11    3    6
 -3.3326178921e-03   11   11    6    4
 -3.3326178921e-03   11   11    4    6
  5.2240335735e-03   11   11    6    5
  5.2240335735e-03   11   11    5    6
  3.5329025457e-01   11   11    6    6
  3.6882538858e-01   11   11    7    7
  3.2098472626e-01   11   11    8    8
 -2.5882585369e-03   11   11    9    8
 -2.5882585369e-03   11   11    8    9
  3.5863363409e-01   11   11    9    9
  3.9503580061e-01   11   11   10   10
  3.4883356222e-01   11   11   11   11
 -7.7861655072e-03   12   10    1    3
 -7.7861655072e-03   10   12    3    1
 -7.7179333286e-03   12   10    2    3
 -7.7179333286e-03   10   12    3    2
 -3.0510635034e-03   12   10    1    4
 -3.0510635034e-03   10   12    4    1
 -2.0970344748e-02   12   10    2    4
 -2.0970344748e-02   10   12    4    2
 -8.3705426846e-03   12   10    1    5
 -8.3705426846e-03   10   12    5    1
 -6.1472299798e-03   12   10    2    5
 -6.1472299798e-03   10   12    5    2
  2.0147309716e-02   12   10    1    6
  2.0147309716e-02   10   12    6    1
  2.4985524774e-02   12   10    2    6
  2.4985524774e-02   10   12    6    2
 -6.7176282911e-03   12   10    7    8
 -6.7176282911e-03   10   12    8    7
  3.7042615126e-02   12   10    7    9
  3.7042615126e-02   10   12    9    7
 -7.2994379290e-03   12   10   10   11
 -7.2994379290e-03   10   12   11   10
  5.5751156270e-02   12   10   10   12
  5.5751156270e-02   10   12   12   10
 -2.6984623269e-02   12   11    1    1
 -2.6984623269e-02   11   12    1    1
 -1.4139957784e-02   12   11    2    1
 -1.4139957784e-02   11   12    1    2
 -1.4139957784e-02   11   12    2    1
 -1.4139957784e-02   12   11    1    2
  1.0053132175e-03   12   11    2    2
  1.0053132175e-03   11   12    2    2
 -5.0931170650e-03   12   11    3    3
 -5.0931170650e-03   11   12    3    3
 -3.9113892511e-03   12   11    4    3
 -3.9113892511e-03   11   12    3    4
 -3.9113892511e-03   11   12    4    3
 -3.9113892511e-03   12   11    3    4
  5.5906524782e-04   12   11    4    4
  5.5906524782e-04   11   12    4    4
 -1.2259016930e-03   12   11    5    3
 -1.2259016930e-03   11   12    3    5
 -1.2259016930e-03   11   12    5    3
 -1.2259016930e-03   12   11    3    5
 -1.3763082826e-04   12   11    5    4
 -1.3763082826e-04   11   12    4    5
 -1.3763082826e-04   11   12    5    4
 -1.3763082826e-04   12   11    4    5
 -8.4557609429e-03   12   11    5    5
 -8.4557609429e-03   11   12    5    5
  5.7915390518e-03   12   11    6    3
  5.7915390518e-03   11   12    3    6
  5.7915390518e-03   11   12    6    3
  5.7915390518e-03   12   11    3    6
  4.0767836380e-03   12   11    6    4
  4.0767836380e-03   11   12    4    6
  4.0767836380e-03   11   12    6    4
  4.0767836380e-03   12   11    4    6
  9.3154270702e-04   12   11    6    5
  9.3154270702e-04   11   12    5    6
  9.3154270702e-04   11   12    6    5
  9.3154270702e-04   12   11    5    6
 -5.8650107192e-03   12   11    6    6
 -5.8650107192e-03   11   12    6    6
 -6.6067401682e-03   12   11    7    7
 -6.6067401682e-03   11   12    7    7
 -2.5882585369e-03   12   11    8    8
 -2.5882585369e-03   11   12    8    8
  8.0429828661e-03   12   11    9    8
  8.0429828661e-03   11   12    8    9
  8.0429828661e-03   11   12    9    8
  8.0429828661e-03   12   11    8    9
 -8.3324699754e-03   12   11    9    9
 -8.3324699754e-03   11   12    9    9
 -7.3292421404e-03   12   11   10   10
 -7.3292421404e-03   11   12   10   10
 -1.0685025499e-03   12   11   11   11
 -1.0685025499e-03   11   12   11   11
  1.2745494099e-02   12   11   12   11
  1.2745494099e-02   11   12   11   12
  1.2745494099e-02   11   12   12   11
  1.2745494099e-02   12   11   11   12
  5.1627331658e-01   12   12    1    1
  3.5004317947e-02   12   12    2    1
  3.5004317947e-02   12   12    1    2
  4.5700649216e-01   12   12    2    2
  3.3819225269e-01   12   12    3    3
  2.2627280892e-02   12   12    4    3
  2.2627280892e-02   12   12    3    4
  3.7805864038e-01   12   12    4    4
 -7.1546621871e-03   12   12    5    3
 -7.1546621871e-03   12   12    3    5
 -5.6845807496e-03   12   12    5    4
 -5.6845807496e-03   12   12    4    5
  4.4520867075e-01   12   12    5    5
 -4.0222701983e-02   12   12    6    3
 -4.0222701983e-02   12   12    3    6
 -1.8602796141e-02   12   12    6    4
 -1.8602796141e-02   12   12    4    6
  6.1364124266e-03   12   12    6    5
  6.1364124266e-03   12   12    5    6
  4.3305918066e-01   12   12    6    6
  4.3681178569e-01   12   12    7    7
  3.5863363409e-01   12   12    8    8
 -8.3324699754e-03   12   12    9    8
 -8.3324699754e-03   12   12    8    9
  4.4610961278e-01   12   12    9    9
  4.7109444144e-01   12   12   10   10
  3.7862140684e-01   12   12   11   11
 -1.1544792315e-02   12   12   12   11
 -1.1544792315e-02   12   12   11   12
  4.8815529773e-01   12   12   12   12
  5.0748775909e-01   13   13    1    1
  3.4566727250e-02   13   13    2    1
  3.4566727250e-02   13   13    1    2
  4.1326265853e-01   13   13    2    2
  3.2565066438e-01   13   13    3    3
  3.7554491001e-02   13   13    4    3
  3.7554491001e-02   13   13    3    4
  3.7364921143e-01   13   13    4    4
  0.0000000000e+00   13   13    5    3
  0.0000000000e+00   13   13    3    5
  0.0000000000e+00   13   13    5    4
  0.0000000000e+00   13   13    4    5
  4.4668947035e-01   13   13    5    5
 -3.5792704331e-02   13   13    6    3
 -3.5792704331e-02   13   13    3    6
 -7.6524282903e-03   13   13    6    4
 -7.6524282903e-03   13   13    4    6
  0.0000000000e+00   13   13    6    5
  0.0000000000e+00   13   13    5    6
  4.1487685447e-01   13   13    6    6
  4.5492045410e-01   13   13    7    7
  3.6884025974e-01   13   13    8    8
 -8.4557609429e-03   13   13    9    8
 -8.4557609429e-03   13   13    8    9
  4.4520867075e-01   13   13    9    9
  4.5492045410e-01   13   13   10   10
  3.6884025974e-01   13   13   11   11
 -8.4557609429e-03   13   13   12   11
 -8.4557609429e-03   13   13   11   12
  4.4520867075e-01   13   13   12   12
  4.6622670791e-01   13   13   13   13
  4.3765376752e-01   14   14    1    1
 -7.3702150545e-04   14   14    2    1
 -7.3702150545e-04   14   14    1    2
  4.7429487985e-01   14   14    2    2
  3.3233844628e-01   14   14    3    3
 -6.7120431885e-03   14   14    4    3
 -6.7120431885e-03   14   14    3    4
  3.6601527832e-01   14   14    4    4
  0.0000000000e+00   14   14    5    3
  0.0000000000e+00   14   14    3    5
  0.0000000000e+00   14   14    5    4
  0.0000000000e+00   14   14    4    5
  4.0397423294e-01   14   14    5    5
 -3.3665491944e-02   14   14    6    3
 -3.3665491944e-02   14   14    3    6
 -2.3857613232e-02   14   14    6    4
 -2.3857613232e-02   14   14    4    6
  0.0000000000e+00   14   14    6    5
  0.0000000000e+00   14   14    5    6
  4.2608315872e-01   14   14    6    6
  4.1678178200e-01   14   14    7    7
  3.4748808707e-01   14   14    8    8
  5.1344389834e-03   14   14    9    8
  5.1344389834e-03   14   14    8    9
  4.3547315615e-01   14   14    9    9
  4.1678178200e-01   14   14   10   10
  3.4748808707e-01   14   14   11   11
  5.1344389834e-03   14   14   12   11
  5.1344389834e-03   14   14   11   12
  4.3547315615e-01   14   14   12   12
  4.0397423294e-01   14   14   13   13
  4.5713627089e-01   14   14   14   14
  6.9816896756e-02   15   14    1    1
  6.9816896756e-02   14   15    1    1
  2.0889077148e-02   15   14    2    1
  2.0889077148e-02   14   15    1    2
  2.0889077148e-02   14   15    2    1
  2.0889077148e-02   15   14    1    2
 -3.6815381763e-03   15   14    2    2
 -3.6815381763e-03   14   15    2    2
  5.1067184026e-03   15   14    3    3
  5.1067184026e-03   14   15    3    3
  2.0486563704e-02   15   14    4    3
  2.0486563704e-02   14   15    3    4
  2.0486563704e-02   14   15    4    3
  2.0486563704e-02   15   14    3    4
  1.7523253847e-02   15   14    4    4
  1.7523253847e-02   14   15    4    4
  0.0000000000e+00   15   14    5    3
  0.0000000000e+00   14   15    3    5
  0.0000000000e+00   14   15    5    3
  0.0000000000e+00   15   14    3    5
  0.0000000000e+00   15   14    5    4
  0.0000000000e+00   14   15    4    5
  0.0000000000e+00   14   15    5    4
  0.0000000000e+00   15   14    4    5
  4.4458116615e-02   15   14    5    5
  4.4458116615e-02   14   15    5    5
 -6.1251506372e-03   15   14    6    3
 -6.1251506372e-03   14   15    3    6
 -6.1251506372e-03   14   15    6    3
 -6.1251506372e-03   15   14    3    6
  8.1340006113e-03   15   14    6    4
  8.1340006113e-03   14   15    4    6
  8.1340006113e-03   14   15    6    4
  8.1340006113e-03   15   14    4    6
  0.0000000000e+00   15   14    6    5
  0.0000000000e+00   14   15    5    6
  0.0000000000e+00   14   15    6    5
  0.0000000000e+00   15   14    5    6
  1.5139492161e-02   15   14    6    6
  1.5139492161e-02   14   15    6    6
  4.6069541419e-02   15   14    7    7
  4.6069541419e-02   14   15    7    7
  2.9644182863e-02   15   14    8    8
  2.9644182863e-02   14   15    8    8
 -3.9780973816e-03   15   14    9    8
 -3.9780973816e-03   14   15    8    9
 -3.9780973816e-03   14   15    9    8
 -3.9780973816e-03   15   14    8    9
  2.5144246799e-02   15   14    9    9
  2.5144246799e-02   14   15    9    9
  4.6069541419e-02   15   14   10   10
  4.6069541419e-02   14   15   10   10
  2.9644182863e-02   15   14   11   11
  2.9644182863e-02   14   15   11   11
 -3.9780973816e-03   15   14   12   11
 -3.9780973816e-03   14   15   11   12
 -3.9780973816e-03   14   15   12   11
 -3.9780973816e-03   15   14   11   12
  2.5144246799e-02   15   14   12   12
  2.5144246799e-02   14   15   12   12
  4.4458116615e-02   15   14   13   13
  4.4458116615e-02   14   15   13   13
 -9.5069212131e-04   15   14   14   14
 -9.5069212131e-04   14   15   14   14
  3.1478127102e-02   15   14   15   14
  3.1478127102e-02   14   15   14   15
  3.1478127102e-02   14   15   15   14
  3.1478127102e-02   15   14   14   15
  6.4872592356e-01   15   15    1    1
  8.3250633758e-02   15   15    2    1
  8.3250633758e-02   15   15    1    2
  5.0264424522e-01   15   15    2    2
  3.6991086295e-01   15   15    3    3