 &FCI NORB= 26,NELEC=  8,MS2= 0,
  ORBSYM=1,1,1,1,1,1,2,2,2,3,3,3,4,5,5,5,5,5,5,6,6,6,7,7,7,8,
  ISYM=1,
 /
 -6.3367212404e-02    3    1    1    1
 -6.3367212404e-02    1    3    1    1
 -2.7958131045e-02    3    1    2    1
 -2.7958131045e-02    1    3    1    2
 -2.7958131045e-02    1    3    2    1
 -2.7958131045e-02    3    1    1    2
 -2.7319930759e-02    3    1    2    2
 -2.7319930759e-02    1    3    2    2
  2.5115206013e-02    3    1    3    1
  2.5115206013e-02    1    3    1    3
 -1.0917360476e-01    3    2    1    1
 -1.0917360476e-01    2    3    1    1
 -2.4379851803e-02    3    2    2    1
 -2.4379851803e-02    2    3    1    2
 -2.4379851803e-02    2    3    2    1
 -2.4379851803e-02    3    2    1    2
 -6.9641636646e-02    3    2    2    2
 -6.9641636646e-02    2    3    2    2
  1.5589326107e-02    3    2    3    1
  1.5589326107e-02    2    3    1    3
  4.1280475453e-02    3    2    3    2
  4.1280475453e-02    2    3    2    3
 -1.6917462733e-02    3    3    3    1
 -1.6917462733e-02    3    3    1    3
 -2.5850871806e-02    3    3    3    2
 -2.5850871806e-02    3    3    2    3
 -9.6400973193e-02    4    1    1    1
 -9.6400973193e-02    1    4    1    1
 -2.6082789389e-02    4    1    2    1
 -2.6082789389e-02    1    4    1    2
 -2.6082789389e-02    1    4    2    1
 -2.6082789389e-02    4    1    1    2
 -6.1736167563e-02    4    1    2    2
 -6.1736167563e-02    1    4    2    2
  2.4456803200e-02    4    1    3    1
  2.4456803200e-02    1    4    1    3
  2.7527360355e-02    4    1    3    2
  2.7527360355e-02    1    4    2    3
 -2.7546027875e-02    4    1    3    3
 -2.7546027875e-02    1    4    3    3
  3.3696618051e-02    4    1    4    1
  3.3696618051e-02    1    4    1    4
  1.5817480261e-02    4    2    1    1
  1.5817480261e-02    2    4    1    1
 -1.6196235935e-02    4    2    2    1
 -1.6196235935e-02    2    4    1    2
 -1.6196235935e-02    2    4    2    1
 -1.6196235935e-02    4    2    1    2
  6.6085647876e-02    4    2    2    2
  6.6085647876e-02    2    4    2    2
  5.9572631016e-03    4    2    3    1
  5.9572631016e-03    2    4    1    3
 -1.5800102571e-02    4    2    3    2
 -1.5800102571e-02    2    4    2    3
  1.5437728132e-02    4    2    3    3
  1.5437728132e-02    2    4    3    3
 -7.8104376659e-03    4    2    4    1
 -7.8104376659e-03    2    4    1    4
  3.4256045405e-02    4    2    4    2
  3.4256045405e-02    2    4    2    4
 -2.9325738971e-03    4    3    3    1
 -2.9325738971e-03    3    4    1    3
 -2.9325738971e-03    3    4    3    1
 -2.9325738971e-03    4    3    1    3
 -1.3844158505e-02    4    3    3    2
 -1.3844158505e-02    3    4    2    3
 -1.3844158505e-02    3    4    3    2
 -1.3844158505e-02    4    3    2    3
 -1.6059334204e-03    4    3    4    1
 -1.6059334204e-03    3    4    1    4
 -1.6059334204e-03    3    4    4    1
 -1.6059334204e-03    4    3    1    4
 -1.2062089036e-02    4    3    4    2
 -1.2062089036e-02    3    4    2    4
 -1.2062089036e-02    3    4    4    2
 -1.2062089036e-02    4    3    2    4
 -9.3815257564e-03    4    4    3    1
 -9.3815257564e-03    4    4    1    3
 -4.7977111978e-02    4    4    3    2
 -4.7977111978e-02    4    4    2    3
 -2.8770257345e-02    4    4    4    1
 -2.8770257345e-02    4    4    1    4
  2.8235107577e-02    4    4    4    2
  2.8235107577e-02    4    4    2    4
  0.0000000000e+00    5    1    1    1
  0.0000000000e+00    1    5    1    1
  0.0000000000e+00    5    1    2    1
  0.0000000000e+00    1    5    1    2
  0.0000000000e+00    1    5    2    1
  0.0000000000e+00    5    1    1    2
  0.0000000000e+00    5    1    2    2
  0.0000000000e+00    1    5    2    2
  0.0000000000e+00    5    1    3    1
  0.0000000000e+00    1    5    1    3
  0.0000000000e+00    5    1    3    2
  0.0000000000e+00    1    5    2    3
  0.0000000000e+00    5    1    3    3
  0.0000000000e+00    1    5    3    3
  0.0000000000e+00    5    1    4    1
  0.0000000000e+00    1    5    1    4
  0.0000000000e+00    5    1    4    2
  0.0000000000e+00    1    5    2    4
  0.0000000000e+00    5    1    4    3
  0.0000000000e+00    1    5    3    4
  0.0000000000e+00    1    5    4    3
  0.0000000000e+00    5    1    3    4
  0.0000000000e+00    5    1    4    4
  0.0000000000e+00    1    5    4    4
  3.3770089397e-02    5    1    5    1
  3.3770089397e-02    1    5    1    5
  0.0000000000e+00    5    2    1    1
  0.0000000000e+00    2    5    1    1
  0.0000000000e+00    5    2    2    1
  0.0000000000e+00    2    5    1    2
  0.0000000000e+00    2    5    2    1
  0.0000000000e+00    5    2    1    2
  0.0000000000e+00    5    2    2    2
  0.0000000000e+00    2    5    2    2
  0.0000000000e+00    5    2    3    1
  0.0000000000e+00    2    5    1    3
  0.0000000000e+00    5    2    3    2
  0.0000000000e+00    2    5    2    3
  0.0000000000e+00    5    2    3    3
  0.0000000000e+00    2    5    3    3
  0.0000000000e+00    5    2    4    1
  0.0000000000e+00    2    5    1    4
  0.0000000000e+00    5    2    4    2
  0.0000000000e+00    2    5    2    4
  0.0000000000e+00    5    2    4    3
  0.0000000000e+00    2    5    3    4
  0.0000000000e+00    2    5    4    3
  0.0000000000e+00    5    2    3    4
  0.0000000000e+00    5    2    4    4
  0.0000000000e+00    2    5    4    4
 -4.9323953869e-03    5    2    5    1
 -4.9323953869e-03    2    5    1    5
  9.0119242625e-03    5    2    5    2
  9.0119242625e-03    2    5    2    5
  0.0000000000e+00    5    3    3    1
  0.0000000000e+00    3    5    1    3
  0.0000000000e+00    3    5    3    1
  0.0000000000e+00    5    3    1    3
  0.0000000000e+00    5    3    3    2
  0.0000000000e+00    3    5    2    3
  0.0000000000e+00    3    5    3    2
  0.0000000000e+00    5    3    2    3
  0.0000000000e+00    5    3    4    1
  0.0000000000e+00    3    5    1    4
  0.0000000000e+00    3    5    4    1
  0.0000000000e+00    5    3    1    4
  0.0000000000e+00    5    3    4    2
  0.0000000000e+00    3    5    2    4
  0.0000000000e+00    3    5    4    2
  0.0000000000e+00    5    3    2    4
  1.1841863342e-02    5    3    5    1
  1.1841863342e-02    3    5    1    5
  1.1841863342e-02    3    5    5    1
  1.1841863342e-02    5    3    1    5
 -2.7000896003e-03    5    3    5    2
 -2.7000896003e-03    3    5    2    5
 -2.7000896003e-03    3    5    5    2
 -2.7000896003e-03    5    3    2    5
  0.0000000000e+00    5    4    3    1
  0.0000000000e+00    4    5    1    3
  0.0000000000e+00    4    5    3    1
  0.0000000000e+00    5    4    1    3
  0.0000000000e+00    5    4    3    2
  0.0000000000e+00    4    5    2    3
  0.0000000000e+00    4    5    3    2
  0.0000000000e+00    5    4    2    3
  0.0000000000e+00    5    4    4    1
  0.0000000000e+00    4    5    1    4
  0.0000000000e+00    4    5    4    1
  0.0000000000e+00    5    4    1    4
  0.0000000000e+00    5    4    4    2
  0.0000000000e+00    4    5    2    4
  0.0000000000e+00    4    5    4    2
  0.0000000000e+00    5    4    2    4
  9.7145505201e-03    5    4    5    1
  9.7145505201e-03    4    5    1    5
  9.7145505201e-03    4    5    5    1
  9.7145505201e-03    5    4    1    5
 -1.7972178352e-03    5    4    5    2
 -1.7972178352e-03    4    5    2    5
 -1.7972178352e-03    4    5    5    2
 -1.7972178352e-03    5    4    2    5
 -9.7405512027e-03    5    5    3    1
 -9.7405512027e-03    5    5    1    3
 -6.1088664659e-02    5    5    3    2
 -6.1088664659e-02    5    5    2    3
 -3.7381564657e-02    5    5    4    1
 -3.7381564657e-02    5    5    1    4
  2.4591458503e-02    5    5    4    2
  2.4591458503e-02    5    5    2    4
  0.0000000000e+00    5    5    5    1
  0.0000000000e+00    5    5    1    5
  0.0000000000e+00    5    5    5    2
  0.0000000000e+00    5    5    2    5
  4.7594266150e-02    6    1    1    1
  4.7594266150e-02    1    6    1    1
  2.9837917526e-02    6    1    2    1
  2.9837917526e-02    1    6    1    2
  2.9837917526e-02    1    6    2    1
  2.9837917526e-02    6    1    1    2
  8.6413147188e-03    6    1    2    2
  8.6413147188e-03    1    6    2    2
 -2.0057609916e-02    6    1    3    1
 -2.0057609916e-02    1    6    1    3
 -9.4355498078e-03    6    1    3    2
 -9.4355498078e-03    1    6    2    3
  1.0027362603e-02    6    1    3    3
  1.0027362603e-02    1    6    3    3
 -1.4098458860e-02    6    1    4    1
 -1.4098458860e-02    1    6    1    4
 -1.0607762079e-02    6    1    4    2
 -1.0607762079e-02    1    6    2    4
  1.0748969192e-02    6    1    4    3
  1.0748969192e-02    1    6    3    4
  1.0748969192e-02    1    6    4    3
  1.0748969192e-02    6    1    3    4
  4.7719238552e-03    6    1    4    4
  4.7719238552e-03    1    6    4    4
  0.0000000000e+00    6    1    5    1
  0.0000000000e+00    1    6    1    5
  0.0000000000e+00    6    1    5    2
  0.0000000000e+00    1    6    2    5
  0.0000000000e+00    6    1    5    3
  0.0000000000e+00    1    6    3    5
  0.0000000000e+00    1    6    5    3
  0.0000000000e+00    6    1    3    5
  0.0000000000e+00    6    1    5    4
  0.0000000000e+00    1    6    4    5
  0.0000000000e+00    1    6    5    4
  0.0000000000e+00    6    1    4    5
 -4.6477903781e-04    6    1    5    5
 -4.6477903781e-04    1    6    5    5
  3.1212300890e-02    6    1    6    1
  3.1212300890e-02    1    6    1    6
  6.6021721508e-02    6    2    1    1
  6.6021721508e-02    2    6    1    1
  2.9473370706e-02    6    2    2    1
  2.9473370706e-02    2    6    1    2
  2.9473370706e-02    2    6    2    1
  2.9473370706e-02    6    2    1    2
 -2.1951509610e-02    6    2    2    2
 -2.1951509610e-02    2    6    2    2
 -1.1455079722e-02    6    2    3    1
 -1.1455079722e-02    2    6    1    3
 -1.6182723154e-02    6    2    3    2
 -1.6182723154e-02    2    6    2    3
  4.4059254234e-04    6    2    3    3
  4.4059254234e-04    2    6    3    3
 -1.1256114407e-02    6    2    4    1
 -1.1256114407e-02    2    6    1    4
 -2.1980259727e-02    6    2    4    2
 -2.1980259727e-02    2    6    2    4
  2.2142131801e-02    6    2    4    3
  2.2142131801e-02    2    6    3    4
  2.2142131801e-02    2    6    4    3
  2.2142131801e-02    6    2    3    4
  7.3116548355e-03    6    2    4    4
  7.3116548355e-03    2    6    4    4
  0.0000000000e+00    6    2    5    1
  0.0000000000e+00    2    6    1    5
  0.0000000000e+00    6    2    5    2
  0.0000000000e+00    2    6    2    5
  0.0000000000e+00    6    2    5    3
  0.0000000000e+00    2    6    3    5
  0.0000000000e+00    2    6    5    3
  0.0000000000e+00    6    2    3    5
  0.0000000000e+00    6    2    5    4
  0.0000000000e+00    2    6    4    5
  0.0000000000e+00    2    6    5    4
  0.0000000000e+00    6    2    4    5
  3.1518676817e-02    6    2    5    5
  3.1518676817e-02    2    6    5    5
  8.6468002565e-03    6    2    6    1
  8.6468002565e-03    2    6    1    6
  4.8030800059e-02    6    2    6    2
  4.8030800059e-02    2    6    2    6
  1.2592250865e-02    6    3    3    1
  1.2592250865e-02    3    6    1    3
  1.2592250865e-02    3    6    3    1
  1.2592250865e-02    6    3    1    3
  1.0614779277e-02    6    3    3    2
  1.0614779277e-02    3    6    2    3
  1.0614779277e-02    3    6    3    2
  1.0614779277e-02    6    3    2    3
  1.5991282167e-02    6    3    4    1
  1.5991282167e-02    3    6    1    4
  1.5991282167e-02    3    6    4    1
  1.5991282167e-02    6    3    1    4
  2.0930449893e-04    6    3    4    2
  2.0930449893e-04    3    6    2    4
  2.0930449893e-04    3    6    4    2
  2.0930449893e-04    6    3    2    4
  0.0000000000e+00    6    3    5    1
  0.0000000000e+00    3    6    1    5
  0.0000000000e+00    3    6    5    1
  0.0000000000e+00    6    3    1    5
  0.0000000000e+00    6    3    5    2
  0.0000000000e+00    3    6    2    5
  0.0000000000e+00    3    6    5    2
  0.0000000000e+00    6    3    2    5
 -8.2913594042e-03    6    3    6    1
 -8.2913594042e-03    3    6    1    6
 -8.2913594042e-03    3    6    6    1
 -8.2913594042e-03    6    3    1    6
 -6.8467261719e-03    6    3    6    2
 -6.8467261719e-03    3    6    2    6
 -6.8467261719e-03    3    6    6    2
 -6.8467261719e-03    6    3    2    6
  9.5228167602e-03    6    4    3    1
  9.5228167602e-03    4    6    1    3
  9.5228167602e-03    4    6    3    1
  9.5228167602e-03    6    4    1    3
  6.5910788419e-03    6    4    3    2
  6.5910788419e-03    4    6    2    3
  6.5910788419e-03    4    6    3    2
  6.5910788419e-03    6    4    2    3
  1.0347117846e-02    6    4    4    1
  1.0347117846e-02    4    6    1    4
  1.0347117846e-02    4    6    4    1
  1.0347117846e-02    6    4    1    4
 -6.5101277055e-03    6    4    4    2
 -6.5101277055e-03    4    6    2    4
 -6.5101277055e-03    4    6    4    2
 -6.5101277055e-03    6    4    2    4
  0.0000000000e+00    6    4    5    1
  0.0000000000e+00    4    6    1    5
  0.0000000000e+00    4    6    5    1
  0.0000000000e+00    6    4    1    5
  0.0000000000e+00    6    4    5    2
  0.0000000000e+00    4    6    2    5
  0.0000000000e+00    4    6    5    2
  0.0000000000e+00    6    4    2    5
 -8.9485941778e-03    6    4    6    1
 -8.9485941778e-03    4    6    1    6
 -8.9485941778e-03    4    6    6    1
 -8.9485941778e-03    6    4    1    6
  7.8362080648e-03    6    4    6    2
  7.8362080648e-03    4    6    2    6
  7.8362080648e-03    4    6    6    2
  7.8362080648e-03    6    4    2    6
  0.0000000000e+00    6    5    3    1
  0.0000000000e+00    5    6    1    3
  0.0000000000e+00    5    6    3    1
  0.0000000000e+00    6    5    1    3
  0.0000000000e+00    6    5    3    2
  0.0000000000e+00    5    6    2    3
  0.0000000000e+00    5    6    3    2
  0.0000000000e+00    6    5    2    3
  0.0000000000e+00    6    5    4    1
  0.0000000000e+00    5    6    1    4
  0.0000000000e+00    5    6    4    1
  0.0000000000e+00    6    5    1    4
  0.0000000000e+00    6    5    4    2
  0.0000000000e+00    5    6    2    4
  0.0000000000e+00    5    6    4    2
  0.0000000000e+00    6    5    2    4
 -1.2000726985e-02    6    5    5    1
 -1.2000726985e-02    5    6    1    5
 -1.2000726985e-02    5    6    5    1
 -1.2000726985e-02    6    5    1    5
  7.7044187649e-03    6    5    5    2
  7.7044187649e-03    5    6    2    5
  7.7044187649e-03    5    6    5    2
  7.7044187649e-03    6    5    2    5
  0.0000000000e+00    6    5    6    1
  0.0000000000e+00    5    6    1    6
  0.0000000000e+00    5    6    6    1
  0.0000000000e+00    6    5    1    6
  0.0000000000e+00    6    5    6    2
  0.0000000000e+00    5    6    2    6
  0.0000000000e+00    5    6    6    2
  0.0000000000e+00    6    5    2    6
 -2.3444789715e-02    6    6    3    1
 -2.3444789715e-02    6    6    1    3
 -5.7895533935e-02    6    6    3    2
 -5.7895533935e-02    6    6    2    3
 -5.1202171323e-02    6    6    4    1
 -5.1202171323e-02    6    6    1    4
  3.9843788249e-02    6    6    4    2
  3.9843788249e-02    6    6    2    4
  0.0000000000e+00    6    6    5    1
  0.0000000000e+00    6    6    1    5
  0.0000000000e+00    6    6    5    2
  0.0000000000e+00    6    6    2    5
  1.0905511120e-02    6    6    6    1
  1.0905511120e-02    6    6    1    6
 -2.5161333934e-03    6    6    6    2
 -2.5161333934e-03    6    6    2    6
 -2.1493394494e-02    7    7    3    1
 -2.1493394494e-02    7    7    1    3
 -7.3606047067e-02    7    7    3    2
 -7.3606047067e-02    7    7    2    3
 -5.3584365660e-02    7    7    4    1
 -5.3584365660e-02    7    7    1    4
  3.0810514502e-02    7    7    4    2
  3.0810514502e-02    7    7    2    4
  2.4885438567e-02    7    7    5    1
  2.4885438567e-02    7    7    1    5
 -5.8137936119e-03    7    7    5    2
 -5.8137936119e-03    7    7    2    5
  5.2665518408e-03    7    7    6    1
  5.2665518408e-03    7    7    1    6
  3.2244795869e-02    7    7    6    2
  3.2244795869e-02    7    7    2    6
 -1.3660733295e-01    8    7    1    1
 -1.3660733295e-01    7    8    1    1
 -2.7260154111e-02    8    7    2    1
 -2.7260154111e-02    7    8    1    2
 -2.7260154111e-02    7    8    2    1
 -2.7260154111e-02    8    7    1    2
 -8.8753672305e-02    8    7    2    2
 -8.8753672305e-02    7    8    2    2
  2.1396365648e-02    8    7    3    1
  2.1396365648e-02    7    8    1    3
  3.7004371377e-02    8    7    3    2
  3.7004371377e-02    7    8    2    3
 -4.1546973972e-02    8    7    3    3
 -4.1546973972e-02    7    8    3    3
  3.8578952887e-02    8    7    4    1
  3.8578952887e-02    7    8    1    4
 -1.6442039776e-02    8    7    4    2
 -1.6442039776e-02    7    8    2    4
 -4.0256729251e-03    8    7    4    3
 -4.0256729251e-03    7    8    3    4
 -4.0256729251e-03    7    8    4    3
 -4.0256729251e-03    8    7    3    4
 -4.9815375050e-02    8    7    4    4
 -4.9815375050e-02    7    8    4    4
 -4.4810828305e-03    8    7    5    1
 -4.4810828305e-03    7    8    1    5
 -6.0444413355e-04    8    7    5    2
 -6.0444413355e-04    7    8    2    5
  9.2827251282e-04    8    7    5    3
  9.2827251282e-04    7    8    3    5
  9.2827251282e-04    7    8    5    3
  9.2827251282e-04    8    7    3    5
  5.2420846144e-03    8    7    5    4
  5.2420846144e-03    7    8    4    5
  5.2420846144e-03    7    8    5    4
  5.2420846144e-03    8    7    4    5
 -7.5168226578e-02    8    7    5    5
 -7.5168226578e-02    7    8    5    5
 -5.8486300877e-03    8    7    6    1
 -5.8486300877e-03    7    8    1    6
 -1.4931282338e-02    8    7    6    2
 -1.4931282338e-02    7    8    2    6
  1.8561313663e-02    8    7    6    3
  1.8561313663e-02    7    8    3    6
  1.8561313663e-02    7    8    6    3
  1.8561313663e-02    8    7    3    6
  8.2419799449e-03    8    7    6    4
  8.2419799449e-03    7    8    4    6
  8.2419799449e-03    7    8    6    4
  8.2419799449e-03    8    7    4    6
  2.2678217870e-03    8    7    6    5
  2.2678217870e-03    7    8    5    6
  2.2678217870e-03    7    8    6    5
  2.2678217870e-03    8    7    5    6
 -7.7136750859e-02    8    7    6    6
 -7.7136750859e-02    7    8    6    6
 -9.6758723529e-02    8    7    7    7
 -9.6758723529e-02    7    8    7    7
  6.3228113731e-02    8    7    8    7
  6.3228113731e-02    7    8    7    8
 -1.5760862707e-02    8    8    3    1
 -1.5760862707e-02    8    8    1    3
 -5.1124593113e-02    8    8    3    2
 -5.1124593113e-02    8    8    2    3
 -3.5252980105e-02    8    8    4    1
 -3.5252980105e-02    8    8    1    4
  1.9139527801e-02    8    8    4    2
  1.9139527801e-02    8    8    2    4
  1.4560537866e-02    8    8    5    1
  1.4560537866e-02    8    8    1    5
 -4.0752365861e-03    8    8    5    2
 -4.0752365861e-03    8    8    2    5
  5.5298909584e-03    8    8    6    1
  5.5298909584e-03    8    8    1    6
  2.0564527548e-02    8    8    6    2
  2.0564527548e-02    8    8    2    6
 -5.7832514877e-02    8    8    8    7
 -5.7832514877e-02    8    8    7    8
  6.4671098439e-02    9    7    1    1
  6.4671098439e-02    7    9    1    1
  3.4741839413e-02    9    7    2    1
  3.4741839413e-02    7    9    1    2
  3.4741839413e-02    7    9    2    1
  3.4741839413e-02    9    7    1    2
 -2.4344966038e-02    9    7    2    2
 -2.4344966038e-02    7    9    2    2
 -7.7861655072e-03    9    7    3    1
 -7.7861655072e-03    7    9    1    3
 -7.7179333286e-03    9    7    3    2
 -7.7179333286e-03    7    9    2    3
  3.3840764736e-03    9    7    3    3
  3.3840764736e-03    7    9    3    3
 -3.0510635034e-03    9    7    4    1
 -3.0510635034e-03    7    9    1    4
 -2.0970344748e-02    9    7    4    2
 -2.0970344748e-02    7    9    2    4
  2.7314555587e-02    9    7    4    3
  2.7314555587e-02    7    9    3    4
  2.7314555587e-02    7    9    4    3
  2.7314555587e-02    9    7    3    4
  7.2958365241e-03    9    7    4    4
  7.2958365241e-03    7    9    4    4
  8.3705426846e-03    9    7    5    1
  8.3705426846e-03    7    9    1    5
  6.1472299798e-03    9    7    5    2
  6.1472299798e-03    7    9    2    5
  2.9049559339e-03    9    7    5    3
  2.9049559339e-03    7    9    3    5
  2.9049559339e-03    7    9    5    3
  2.9049559339e-03    9    7    3    5
  4.1480279040e-03    9    7    5    4
  4.1480279040e-03    7    9    4    5
  4.1480279040e-03    7    9    5    4
  4.1480279040e-03    9    7    4    5
  2.7241108741e-02    9    7    5    5
  2.7241108741e-02    7    9    5    5
  2.0147309716e-02    9    7    6    1
  2.0147309716e-02    7    9    1    6
  2.4985524774e-02    9    7    6    2
  2.4985524774e-02    7    9    2    6
 -3.2646238375e-03    9    7    6    3
 -3.2646238375e-03    7    9    3    6
 -3.2646238375e-03    7    9    6    3
 -3.2646238375e-03    9    7    3    6
  3.4593529610e-03    9    7    6    4
  3.4593529610e-03    7    9    4    6
  3.4593529610e-03    7    9    6    4
  3.4593529610e-03    9    7    4    6
  3.1192866215e-03    9    7    6    5
  3.1192866215e-03    7    9    5    6
  3.1192866215e-03    7    9    6    5
  3.1192866215e-03    9    7    5    6
  1.5941207795e-03    9    7    6    6
  1.5941207795e-03    7    9    6    6
  2.8755497902e-02    9    7    7    7
  2.8755497902e-02    7    9    7    7
 -7.2994379290e-03    9    7    8    7
 -7.2994379290e-03    7    9    7    8
  1.6678277006e-02    9    7    8    8
  1.6678277006e-02    7    9    8    8
  5.5751156270e-02    9    7    9    7
  5.5751156270e-02    7    9    7    9
  8.5546838965e-03    9    8    3    1
  8.5546838965e-03    8    9    1    3
  8.5546838965e-03    8    9    3    1
  8.5546838965e-03    9    8    1    3
 -1.1932110526e-03    9    8    3    2
 -1.1932110526e-03    8    9    2    3
 -1.1932110526e-03    8    9    3    2
 -1.1932110526e-03    9    8    2    3
  5.0549839794e-03    9    8    4    1
  5.0549839794e-03    8    9    1    4
  5.0549839794e-03    8    9    4    1
  5.0549839794e-03    9    8    1    4
  1.0862417883e-02    9    8    4    2
  1.0862417883e-02    8    9    2    4
  1.0862417883e-02    8    9    4    2
  1.0862417883e-02    9    8    2    4
 -2.1355659178e-03    9    8    5    1
 -2.1355659178e-03    8    9    1    5
 -2.1355659178e-03    8    9    5    1
 -2.1355659178e-03    9    8    1    5
 -1.5041966378e-03    9    8    5    2
 -1.5041966378e-03    8    9    2    5
 -1.5041966378e-03    8    9    5    2
 -1.5041966378e-03    9    8    2    5
 -1.0641677966e-02    9    8    6    1
 -1.0641677966e-02    8    9    1    6
 -1.0641677966e-02    8    9    6    1
 -1.0641677966e-02    9    8    1    6
 -7.1236500729e-03    9    8    6    2
 -7.1236500729e-03    8    9    2    6
 -7.1236500729e-03    8    9    6    2
 -7.1236500729e-03    9    8    2    6
  4.1177468488e-03    9    8    8    7
  4.1177468488e-03    8    9    7    8
  4.1177468488e-03    8    9    8    7
  4.1177468488e-03    9    8    7    8
 -1.5296786120e-02    9    8    9    7
 -1.5296786120e-02    8    9    7    9
 -1.5296786120e-02    8    9    9    7
 -1.5296786120e-02    9    8    7    9
 -2.0627773595e-02    9    9    3    1
 -2.0627773595e-02    9    9    1    3
 -6.4423859893e-02    9    9    3    2
 -6.4423859893e-02    9    9    2    3
 -5.0952210071e-02    9    9    4    1
 -5.0952210071e-02    9    9    1    4
  3.9180645091e-02    9    9    4    2
  3.9180645091e-02    9    9    2    4
  2.2580325415e-02    9    9    5    1
  2.2580325415e-02    9    9    1    5
 -6.6183000319e-03    9    9    5    2
 -6.6183000319e-03    9    9    2    5
  1.2616918631e-02    9    9    6    1
  1.2616918631e-02    9    9    1    6
  1.2699760147e-02    9    9    6    2
  1.2699760147e-02    9    9    2    6
 -8.7464592721e-02    9    9    8    7
 -8.7464592721e-02    9    9    7    8
  1.6966243739e-02    9    9    9    7
  1.6966243739e-02    9    9    7    9
 -2.1493394494e-02   10   10    3    1
 -2.1493394494e-02   10   10    1    3
 -7.3606047067e-02   10   10    3    2
 -7.3606047067e-02   10   10    2    3
 -5.3584365660e-02   10   10    4    1
 -5.3584365660e-02   10   10    1    4
  3.0810514502e-02   10   10    4    2
  3.0810514502e-02   10   10    2    4
 -2.4885438567e-02   10   10    5    1
 -2.4885438567e-02   10   10    1    5
  5.8137936119e-03   10   10    5    2
  5.8137936119e-03   10   10    2    5
  5.2665518408e-03   10   10    6    1
  5.2665518408e-03   10   10    1    6
  3.2244795869e-02   10   10    6    2
  3.2244795869e-02   10   10    2    6
 -8.9816426059e-02   10   10    8    7
 -8.9816426059e-02   10   10    7    8
  2.1016682848e-02   10   10    9    7
  2.1016682848e-02   10   10    7    9
 -1.3660733295e-01   11   10    1    1
 -1.3660733295e-01   10   11    1    1
 -2.7260154111e-02   11   10    2    1
 -2.7260154111e-02   10   11    1    2
 -2.7260154111e-02   10   11    2    1
 -2.7260154111e-02   11   10    1    2
 -8.8753672305e-02   11   10    2    2
 -8.8753672305e-02   10   11    2    2
  2.1396365648e-02   11   10    3    1
  2.1396365648e-02   10   11    1    3
  3.7004371377e-02   11   10    3    2
  3.7004371377e-02   10   11    2    3
 -4.1546973972e-02   11   10    3    3
 -4.1546973972e-02   10   11    3    3
  3.8578952887e-02   11   10    4    1
  3.8578952887e-02   10   11    1    4
 -1.6442039776e-02   11   10    4    2
 -1.6442039776e-02   10   11    2    4
 -4.0256729251e-03   11   10    4    3
 -4.0256729251e-03   10   11    3    4
 -4.0256729251e-03   10   11    4    3
 -4.0256729251e-03   11   10    3    4
 -4.9815375050e-02   11   10    4    4
 -4.9815375050e-02   10   11    4    4
  4.4810828305e-03   11   10    5    1
  4.4810828305e-03   10   11    1    5
  6.0444413355e-04   11   10    5    2
  6.0444413355e-04   10   11    2    5
 -9.2827251282e-04   11   10    5    3
 -9.2827251282e-04   10   11    3    5
 -9.2827251282e-04   10   11    5    3
 -9.2827251282e-04   11   10    3    5
 -5.2420846144e-03   11   10    5    4
 -5.2420846144e-03   10   11    4    5
 -5.2420846144e-03   10   11    5    4
 -5.2420846144e-03   11   10    4    5
 -7.5168226578e-02   11   10    5    5
 -7.5168226578e-02   10   11    5    5
 -5.8486300877e-03   11   10    6    1
 -5.8486300877e-03   10   11    1    6
 -1.4931282338e-02   11   10    6    2
 -1.4931282338e-02   10   11    2    6
  1.8561313663e-02   11   10    6    3
  1.8561313663e-02   10   11    3    6
  1.8561313663e-02   10   11    6    3
  1.8561313663e-02   11   10    3    6
  8.2419799449e-03   11   10    6    4
  8.2419799449e-03   10   11    4    6
  8.2419799449e-03   10   11    6    4
  8.2419799449e-03   11   10    4    6
 -2.2678217870e-03   11   10    6    5
 -2.2678217870e-03   10   11    5    6
 -2.2678217870e-03   10   11    6    5
 -2.2678217870e-03   11   10    5    6
 -7.7136750859e-02   11   10    6    6
 -7.7136750859e-02   10   11    6    6
 -8.9816426059e-02   11   10    7    7
 -8.9816426059e-02   10   11    7    7
  4.9717012796e-02   11   10    8    7
  4.9717012796e-02   10   11    7    8
 -5.9346394647e-02   11   10    8    8
 -5.9346394647e-02   10   11    8    8
 -6.7176282911e-03   11   10    9    7
 -6.7176282911e-03   10   11    7    9
  2.7470993948e-03   11   10    9    8
  2.7470993948e-03   10   11    8    9
  2.7470993948e-03   10   11    9    8
  2.7470993948e-03   11   10    8    9
 -8.2098438630e-02   11   10    9    9
 -8.2098438630e-02   10   11    9    9
 -9.6758723529e-02   11   10   10   10
 -9.6758723529e-02   10   11   10   10
  6.3228113731e-02   11   10   11   10
  6.3228113731e-02   10   11   10   11
 -1.5760862707e-02   11   11    3    1
 -1.5760862707e-02   11   11    1    3
 -5.1124593113e-02   11   11    3    2
 -5.1124593113e-02   11   11    2    3
 -3.5252980105e-02   11   11    4    1
 -3.5252980105e-02   11   11    1    4
  1.9139527801e-02   11   11    4    2
  1.9139527801e-02   11   11    2    4
 -1.4560537866e-02   11   11    5    1
 -1.4560537866e-02   11   11    1    5
  4.0752365861e-03   11   11    5    2
  4.0752365861e-03   11   11    2    5
  5.5298909584e-03   11   11    6    1
  5.5298909584e-03   11   11    1    6
  2.0564527548e-02   11   11    6    2
  2.0564527548e-02   11   11    2    6
 -5.9346394647e-02   11   11    8    7
 -5.9346394647e-02   11   11    7    8
  1.2596869175e-02   11   11    9    7
  1.2596869175e-02   11   11    7    9
 -5.7832514877e-02   11   11   11   10
 -5.7832514877e-02   11   11   10   11
  6.4671098439e-02   12   10    1    1
  6.4671098439e-02   10   12    1    1
  3.4741839413e-02   12   10    2    1
  3.4741839413e-02   10   12    1    2
  3.4741839413e-02   10   12    2    1
  3.4741839413e-02   12   10    1    2
 -2.4344966038e-02   12   10    2    2
 -2.4344966038e-02   10   12    2    2
 -7.7861655072e-03   12   10    3    1
 -7.7861655072e-03   10   12    1    3
 -7.7179333286e-03   12   10    3    2
 -7.7179333286e-03   10   12    2    3
  3.3840764736e-03   12   10    3    3
  3.3840764736e-03   10   12    3    3
 -3.0510635034e-03   12   10    4    1
 -3.0510635034e-03   10   12    1    4
 -2.0970344748e-02   12   10    4    2
 -2.0970344748e-02   10   12    2    4
  2.7314555587e-02   12   10    4    3
  2.7314555587e-02   10   12    3    4
  2.7314555587e-02   10   12    4    3
  2.7314555587e-02   12   10    3    4
  7.2958365241e-03   12   10    4    4
  7.2958365241e-03   10   12    4    4
 -8.3705426846e-03   12   10    5    1
 -8.3705426846e-03   10   12    1    5
 -6.1472299798e-03   12   10    5    2
 -6.1472299798e-03   10   12    2    5
 -2.9049559339e-03   12   10    5    3
 -2.9049559339e-03   10   12    3    5
 -2.9049559339e-03   10   12    5    3
 -2.9049559339e-03   12   10    3    5
 -4.1480279040e-03   12   10    5    4
 -4.1480279040e-03   10   12    4    5
 -4.1480279040e-03   10   12    5    4
 -4.1480279040e-03   12   10    4    5
  2.7241108741e-02   12   10    5    5
  2.7241108741e-02   10   12    5    5
  2.0147309716e-02   12   10    6    1
  2.0147309716e-02   10   12    1    6