 &FCI NORB=   6,NELEC= 4,MS2=0,
  ORBSYM=1,1,1,1,1,1,
  ISYM=1,
 &END
 0.5536276908947153    1    1    1    1
 0.4659947041128225    1    1    2    2
 -1.317002062961592e-14    1    1    3    2
 0.4857430664889023    1    1    3    3
 -1.153591111524577e-15    1    1    4    1
 0.5023042833975553    1    1    4    4
 -1.104671909502031e-14    1    1    5    1
 0.004045840502602344    1    1    5    4
 0.544079107509342    1    1    5    5
 0.03028407448288148    1    1    6    2
 1.000588500943422e-14    1    1    6    3
 0.5752759462954899    1    1    6    6
 0.03913468076828899    2    1    2    1
 0.003035859401122621    2    1    4    3
 -2.879559654958563e-15    2    1    5    2
 0.03163770157020514    2    1    5    3
 0.02192380954890533    2    1    6    1
 1.734723475976807e-15    2    1    6    5
 0.4659947041128225    2    2    1    1
 0.5034194119682213    2    2    2    2
 -3.087807787238717e-14    2    2    3    2
 0.5149992011523209    2    2    3    3
 -1.882174971434836e-15    2    2    4    1
 0.4945465559072133    2    2    4    4
 -1.848521336000886e-14    2    2    5    1
 0.4945465559072131    2    2    5    5
 -0.0264681873522054    2    2    6    2
 1.346145417358002e-14    2    2    6    3
 0.5199515361260808    2    2    6    6
 0.02253944609889727    3    1    3    1
 -1.281913331732879e-15    3    1    3    2
 0.002706657720932663    3    1    4    2
 -1.156714592193622e-15    3    1    5    1
 0.0282069812573973    3    1    5    2
 5.136516212367326e-15    3    1    5    3
 2.121783651554131e-15    3    1    6    1
 -0.0001801619191875886    3    1    6    4
 -0.001877527342493072    3    1    6    5
 -1.315614284180811e-14    3    2    1    1
 -3.083991395591568e-14    3    2    2    2
 -1.281913331732879e-15    3    2    3    1
 0.1941426045823701    3    2    3    2
 2.628453010800058e-14    3    2    3    3
 0.01229067940353786    3    2    4    1
 8.548608869396457e-15    3    2    4    4
 0.1280852620909936    3    2    5    1
 1.146743926672393e-15    3    2    5    2
 7.951972413877684e-15    3    2    5    5
 8.788109129298505e-15    3    2    6    2
 -0.1064700659516364    3    2    6    3
 -1.054711873393899e-15    3    2    6    6
 0.4857430664889023    3    3    1    1
 0.5149992011523208    3    3    2    2
 2.617350780553807e-14    3    3    3    2
 0.546841472643569    3    3    3    3
 1.759009604640482e-15    3    3    4    1
 0.5079911181957953    3    3    4    4
 1.953992523340276e-14    3    3    5    1
 0.5079911181957949    3    3    5    5
 -0.03030034169000047    3    3    6    2
 -1.869338017712607e-14    3    3    6    3
 0.5650669248149863    3    3    6    6
 -1.16009632455949e-15    4    1    1    1
 -1.889764386642234e-15    4    1    2    2
 0.01229067940353786    4    1    3    2
 1.762479051592436e-15    4    1    3    3
 0.01738908304270217    4    1    4    1
 1.01047642475649e-15    4    1    4    4
 0.01253948692806882    4    1    5    1
 1.274100182996341e-15    4    1    5    4
 -0.007034675590114606    4    1    6    3
 0.002706657720932662    4    2    3    1
 0.07362874660962418    4    2    4    2
 7.771561172376096e-15    4    2    4    3
 0.03613076535011461    4    2    6    4
 0.00303585940112262    4    3    2    1
 7.768525406293136e-15    4    3    4    2
 0.03310303673915907    4    3    4    3
 0.0005374347130970744    4    3    6    1
 3.962172793635019e-15    4    3    6    4
 0.5023042833975552    4    4    1    1
 0.4945465559072131    4    4    2    2
 8.56259507742152e-15    4    4    3    2
 0.5079911181957953    4    4    3    3
 1.016547956922409e-15    4    4    4    1
 0.5619626755097435    4    4    4    4
 9.242606680004428e-15    4    4    5    1
 0.5151748962105644    4    4    5    5
 0.01529573077442564    4    4    6    2
 -2.92821322744885e-15    4    4    6    3
 0.5769422146180836    4    4    6    6
 -1.097733015598124e-14    5    1    1    1
 -1.849735642434069e-14    5    1    2    2
 -1.156714592193623e-15    5    1    3    1
 0.1280852620909936    5    1    3    2
 1.950523076388322e-14    5    1    3    3
 0.01253948692806882    5    1    4    1
 9.208142603446545e-15    5    1    4    4
 0.1468639994501073    5    1    5    1
 1.111610803405938e-14    5    1    5    5
 8.3995310706797e-15    5    1    6    2
 -0.0733106964311169    5    1    6    3
 5.273559366969494e-15    5    1    6    6
 -2.907396545737129e-15    5    2    2    1
 0.02820698125739731    5    2    3    1
 1.146743926672394e-15    5    2    3    2
 0.07362874660962414    5    2    5    2
 7.629313847345998e-15    5    2    5    3
 0.03613076535011453    5    2    6    5
 0.03163770157020514    5    3    2    1
 5.126107871511465e-15    5    3    3    1
 7.637987464725882e-15    5    3    5    2
 0.03310303673915905    5    3    5    3
 0.005600786077295432    5    3    6    1
 3.961241057393039e-15    5    3    6    5
 0.004045840502602358    5    4    1    1
 1.268950222677034e-15    5    4    4    1
 0.02339388964958937    5    4    5    4
 0.5440791075093416    5    5    1    1
 0.4945465559072129    5    5    2    2
 7.896461262646426e-15    5    5    3    2
 0.507991118195795    5    5    3    3
 0.5151748962105644    5    5    4    4
 1.107447467063594e-14    5    5    5    1
 0.5619626755097433    5    5    5    5
 0.01529573077442593    5    5    6    2
 -2.67841304690819e-15    5    5    6    3
 0.5769422146180836    5    5    6    6
 0.02192380954890534    6    1    2    1
 2.118314204602179e-15    6    1    3    1
 0.000537434713097073    6    1    4    3
 0.005600786077295425    6    1    5    3
 0.03272315435107738    6    1    6    1
 0.03028407448288131    6    2    1    1
 -0.02646818735220531    6    2    2    2
 8.486700925347535e-15    6    2    3    2
 -0.03030034169000026    6    2    3    3
 0.01529573077442635    6    2    4    4
 8.442031795841132e-15    6    2    5    1
 0.01529573077442634    6    2    5    5
 0.03971075679777079    6    2    6    2
 -4.253541963095131e-15    6    2    6    3
 0.0163351810356548    6    2    6    6
 9.794248745365053e-15    6    3    1    1
 1.322726650432315e-14    6    3    2    2
 -0.1064700659516364    6    3    3    2
 -1.867950238931826e-14    6    3    3    3
 -0.007034675590114598    6    3    4    1
 -3.453034841567615e-15    6    3    4    4
 -0.07331069643111678    6    3    5    1
 -3.122502256758253e-15    6    3    5    5
 -4.409667075933044e-15    6    3    6    2
 0.08032074571014325    6    3    6    3
 -1.290634266126744e-14    6    3    6    6
 -0.0001801619191875877    6    4    3    1
 0.03613076535011461    6    4    4    2
 3.948230631323213e-15    6    4    4    3
 0.04674100606562503    6    4    6    4
 1.698294282981295e-15    6    5    2    1
 -0.001877527342493064    6    5    3    1
 0.03613076535011458    6    5    5    2
 3.951700078275167e-15    6    5    5    3
 0.04674100606562497    6    5    6    5
 0.5752759462954894    6    6    1    1
 0.5199515361260802    6    6    2    2
 -1.27675647831893e-15    6    6    3    2
 0.5650669248149871    6    6    3    3
 0.5769422146180844    6    6    4    4
 6.078471059822732e-15    6    6    5    1
 0.576942214618084    6    6    5    5
 0.0163351810356523    6    6    6    2
 -8.867906409193438e-15    6    6    6    3
 0.6840016825019989    6    6    6    6
 -1.932503972662189    1    1  0  0
 -1.024794037724966e-15    2    1  0  0
 -1.797363381300484    2    2  0  0
 -2.425837308805967e-14    3    2  0  0
 -1.776527291538693    3    3  0  0
 -4.48252546192407e-15    4    1  0  0
 -1.446662574694704    4    4  0  0
 -4.823919041996305e-14    5    1  0  0
 0.004447805922863913    5    4  0  0
 -1.400737306510868    5    5  0  0
 -0.01217615166801731    6    2  0  0
 5.30825383648903e-14    6    3  0  0
 -0.4257563039328778    6    6  0  0
 0  0  0  0  0
