 &FCI NORB=   8,NELEC= 8,MS2=0,
  ORBSYM=1,5,3,2,1,6,7,5
  ISYM=1,
 &END
   6.949480484e-01    1    1    1    1
   4.069556942e-02    2    1    2    1
   4.375097192e-01    2    2    1    1
   4.571259656e-01    2    2    2    2
   8.656264530e-02    3    1    3    1
   3.482494444e-02    3    2    3    2
   5.359841403e-01    3    3    1    1
   4.167588741e-01    3    3    2    2
   4.873416159e-01    3    3    3    3
   8.656261376e-02    4    1    4    1
   3.482495848e-02    4    2    4    2
   1.976231008e-02    4    3    4    3
   5.359840742e-01    4    4    1    1
   4.167588714e-01    4    4    2    2
   4.478169577e-01    4    4    3    3
   4.873415398e-01    4    4    4    4
   1.084127691e-01    5    1    1    1
  -7.777532176e-04    5    1    2    2
   4.474431504e-02    5    1    3    3
   4.474429075e-02    5    1    4    4
   4.804278276e-02    5    1    5    1
  -7.715715760e-02    5    2    2    1
   1.969024888e-01    5    2    5    2
  -9.936008390e-03    5    3    3    1
   2.043096437e-02    5    3    5    3
  -9.936024939e-03    5    4    4    1
   2.043097542e-02    5    4    5    4
   4.824719551e-01    5    5    1    1
   4.742989906e-01    5    5    2    2
   4.342053015e-01    5    5    3    3
   4.342052923e-01    5    5    4    4
   1.738277708e-02    5    5    5    1
   5.056250385e-01    5    5    5    5
   3.109124222e-02    6    1    4    2
   3.501976966e-02    6    1    6    1
   5.678503791e-02    6    2    4    1
  -2.963544466e-02    6    2    5    4
   6.583185448e-02    6    2    6    2
   1.419238758e-02    6    3    6    3
   7.171255239e-02    6    4    2    1
  -1.306210595e-01    6    4    5    2
   1.444998385e-01    6    4    6    4
  -3.094582905e-02    6    5    4    2
  -2.096996814e-02    6    5    6    1
   3.439206750e-02    6    5    6    5
   5.247143962e-01    6    6    1    1
   4.541030668e-01    6    6    2    2
   4.548299936e-01    6    6    3    3
   4.904686206e-01    6    6    4    4
   2.810019226e-02    6    6    5    1
   4.709053645e-01    6    6    5    5
   5.216696141e-01    6    6    6    6
   3.109124145e-02    7    1    3    2
   3.501979088e-02    7    1    7    1
   5.678503664e-02    7    2    3    1
  -2.963540901e-02    7    2    5    3
   6.583179141e-02    7    2    7    2
   7.171253949e-02    7    3    2    1
  -1.306210017e-01    7    3    5    2
   1.161150402e-01    7    3    6    4
   1.444998013e-01    7    3    7    3
   1.419238985e-02    7    4    6    3
   1.419239212e-02    7    4    7    4
  -3.094578969e-02    7    5    3    2
  -2.096993990e-02    7    5    7    1
   3.439199774e-02    7    5    7    5
   1.781932689e-02    7    6    4    3
   2.066386376e-02    7    6    7    6
   5.247144127e-01    7    7    1    1
   4.541029375e-01    7    7    2    2
   4.904686229e-01    7    7    3    3
   4.548299423e-01    7    7    4    4
   2.810023911e-02    7    7    5    1
   4.709052306e-01    7    7    5    5
   4.803418060e-01    7    7    6    6
   5.216694528e-01    7    7    7    7
   4.947137078e-02    8    1    2    1
  -6.142389736e-02    8    1    5    2
   9.391081996e-02    8    1    6    4
   9.391083109e-02    8    1    7    3
   1.092441710e-01    8    1    8    1
   6.986654702e-02    8    2    1    1
  -1.010172313e-03    8    2    2    2
   4.607857952e-02    8    2    3    3
   4.607856359e-02    8    2    4    4
   2.095100013e-02    8    2    5    1
  -3.719091984e-03    8    2    5    5
   3.666536019e-02    8    2    6    6
   3.666540291e-02    8    2    7    7
   3.151537224e-02    8    2    8    2
   2.138344216e-02    8    3    3    2
   3.092397362e-02    8    3    7    1
  -7.867705716e-03    8    3    7    5
   3.272250729e-02    8    3    8    3
   2.138343846e-02    8    4    4    2
   3.092395327e-02    8    4    6    1
  -7.867712867e-03    8    4    6    5
   3.272249730e-02    8    4    8    4
   3.367059574e-02    8    5    2    1
  -8.468388030e-02    8    5    5    2
   5.875621361e-02    8    5    6    4
   5.875619631e-02    8    5    7    3
   4.925787068e-02    8    5    8    1
   5.433740599e-02    8    5    8    5
   5.480828606e-02    8    6    4    1
  -2.864503108e-03    8    6    5    4
   3.299660535e-02    8    6    6    2
   4.374394613e-02    8    6    8    6
   5.480833699e-02    8    7    3    1
  -2.864503396e-03    8    7    5    3
   3.299663791e-02    8    7    7    2
   4.374399559e-02    8    7    8    7
   6.486754611e-01    8    8    1    1
   4.607933211e-01    8    8    2    2
   5.210410471e-01    8    8    3    3
   5.210409970e-01    8    8    4    4
   8.332258358e-02    8    8    5    1
   5.026448246e-01    8    8    5    5
   5.333113864e-01    8    8    6    6
   5.333113623e-01    8    8    7    7
   5.397062848e-02    8    8    8    2
   6.463081884e-01    8    8    8    8
  -4.536120775e+00    1    1  0  0
   2.713107516e-15    2    1  0  0
  -3.375675846e+00    2    2  0  0
  -3.580036688e+00    3    3  0  0
  -3.580036456e+00    4    4  0  0
  -3.222281737e-01    5    1  0  0
  -3.444567377e+00    5    5  0  0
  -3.325151061e+00    6    6  0  0
  -3.325151000e+00    7    7  0  0
  -4.711508961e-15    8    1  0  0
  -2.727411877e-01    8    2  0  0
  -3.080314602e+00    8    8  0  0
   0.000000000e+00  0  0  0  0
