 &FCI NORB=  26,NELEC= 8,MS2=0,
  ORBSYM=1,5,3,2,1,6,7,5,1,3,2,1,6,7,5,1,4,5,3,2,5,8,1,6,7,5
  ISYM=1,
 &END
   6.949480484e-01    1    1    1    1
   4.375097192e-01    1    1    2    2
   5.359841403e-01    1    1    3    3
   5.359840742e-01    1    1    4    4
   1.084127691e-01    1    1    5    1
   4.824719551e-01    1    1    5    5
   5.247143962e-01    1    1    6    6
   5.247144127e-01    1    1    7    7
   6.986654702e-02    1    1    8    2
   6.486754611e-01    1    1    8    8
   4.069556942e-02    2    1    2    1
  -7.715715760e-02    2    1    5    2
   7.171255239e-02    2    1    6    4
   7.171253949e-02    2    1    7    3
   4.947137078e-02    2    1    8    1
   3.367059574e-02    2    1    8    5
   4.375097192e-01    2    2    1    1
   4.571259656e-01    2    2    2    2
   4.167588741e-01    2    2    3    3
   4.167588714e-01    2    2    4    4
  -7.777532176e-04    2    2    5    1
   4.742989906e-01    2    2    5    5
   4.541030668e-01    2    2    6    6
   4.541029375e-01    2    2    7    7
  -1.010172313e-03    2    2    8    2
   4.607933211e-01    2    2    8    8
   8.656264530e-02    3    1    3    1
  -9.936008390e-03    3    1    5    3
   5.678503664e-02    3    1    7    2
   5.480833699e-02    3    1    8    7
   3.482494444e-02    3    2    3    2
   3.109124145e-02    3    2    7    1
  -3.094578969e-02    3    2    7    5
   2.138344216e-02    3    2    8    3
   5.359841403e-01    3    3    1    1
   4.167588741e-01    3    3    2    2
   4.873416159e-01    3    3    3    3
   4.478169577e-01    3    3    4    4
   4.474431504e-02    3    3    5    1
   4.342053015e-01    3    3    5    5
   4.548299936e-01    3    3    6    6
   4.904686229e-01    3    3    7    7
   4.607857952e-02    3    3    8    2
   5.210410471e-01    3    3    8    8
   8.656261376e-02    4    1    4    1
  -9.936024939e-03    4    1    5    4
   5.678503791e-02    4    1    6    2
   5.480828606e-02    4    1    8    6
   3.482495848e-02    4    2    4    2
   3.109124222e-02    4    2    6    1
  -3.094582905e-02    4    2    6    5
   2.138343846e-02    4    2    8    4
   1.976231008e-02    4    3    4    3
   1.781932689e-02    4    3    7    6
   5.359840742e-01    4    4    1    1
   4.167588714e-01    4    4    2    2
   4.478169577e-01    4    4    3    3
   4.873415398e-01    4    4    4    4
   4.474429075e-02    4    4    5    1
   4.342052923e-01    4    4    5    5
   4.904686206e-01    4    4    6    6
   4.548299423e-01    4    4    7    7
   4.607856359e-02    4    4    8    2
   5.210409970e-01    4    4    8    8
   1.084127691e-01    5    1    1    1
  -7.777532176e-04    5    1    2    2
   4.474431504e-02    5    1    3    3
   4.474429075e-02    5    1    4    4
   4.804278276e-02    5    1    5    1
   1.738277708e-02    5    1    5    5
   2.810019226e-02    5    1    6    6
   2.810023911e-02    5    1    7    7
   2.095100013e-02    5    1    8    2
   8.332258358e-02    5    1    8    8
  -7.715715760e-02    5    2    2    1
   1.969024888e-01    5    2    5    2
  -1.306210595e-01    5    2    6    4
  -1.306210017e-01    5    2    7    3
  -6.142389736e-02    5    2    8    1
  -8.468388030e-02    5    2    8    5
  -9.936008390e-03    5    3    3    1
   2.043096437e-02    5    3    5    3
  -2.963540901e-02    5    3    7    2
  -2.864503396e-03    5    3    8    7
  -9.936024939e-03    5    4    4    1
   2.043097542e-02    5    4    5    4
  -2.963544466e-02    5    4    6    2
  -2.864503108e-03    5    4    8    6
   4.824719551e-01    5    5    1    1
   4.742989906e-01    5    5    2    2
   4.342053015e-01    5    5    3    3
   4.342052923e-01    5    5    4    4
   1.738277708e-02    5    5    5    1
   5.056250385e-01    5    5    5    5
   4.709053645e-01    5    5    6    6
   4.709052306e-01    5    5    7    7
  -3.719091984e-03    5    5    8    2
   5.026448246e-01    5    5    8    8
   3.109124222e-02    6    1    4    2
   3.501976966e-02    6    1    6    1
  -2.096996814e-02    6    1    6    5
   3.092395327e-02    6    1    8    4
   5.678503791e-02    6    2    4    1
  -2.963544466e-02    6    2    5    4
   6.583185448e-02    6    2    6    2
   3.299660535e-02    6    2    8    6
   1.419238758e-02    6    3    6    3
   1.419238985e-02    6    3    7    4
   7.171255239e-02    6    4    2    1
  -1.306210595e-01    6    4    5    2
   1.444998385e-01    6    4    6    4
   1.161150402e-01    6    4    7    3
   9.391081996e-02    6    4    8    1
   5.875621361e-02    6    4    8    5
  -3.094582905e-02    6    5    4    2
  -2.096996814e-02    6    5    6    1
   3.439206750e-02    6    5    6    5
  -7.867712867e-03    6    5    8    4
   5.247143962e-01    6    6    1    1
   4.541030668e-01    6    6    2    2
   4.548299936e-01    6    6    3    3
   4.904686206e-01    6    6    4    4
   2.810019226e-02    6    6    5    1
   4.709053645e-01    6    6    5    5
   5.216696141e-01    6    6    6    6
   4.803418060e-01    6    6    7    7
   3.666536019e-02    6    6    8    2
   5.333113864e-01    6    6    8    8
   3.109124145e-02    7    1    3    2
   3.501979088e-02    7    1    7    1
  -2.096993990e-02    7    1    7    5
   3.092397362e-02    7    1    8    3
   5.678503664e-02    7    2    3    1
  -2.963540901e-02    7    2    5    3
   6.583179141e-02    7    2    7    2
   3.299663791e-02    7    2    8    7
   7.171253949e-02    7    3    2    1
  -1.306210017e-01    7    3    5    2
   1.161150402e-01    7    3    6    4
   1.444998013e-01    7    3    7    3
   9.391083109e-02    7    3    8    1
   5.875619631e-02    7    3    8    5
   1.419238985e-02    7    4    6    3
   1.419239212e-02    7    4    7    4
  -3.094578969e-02    7    5    3    2
  -2.096993990e-02    7    5    7    1
   3.439199774e-02    7    5    7    5
  -7.867705716e-03    7    5    8    3
   1.781932689e-02    7    6    4    3
   2.066386376e-02    7    6    7    6
   5.247144127e-01    7    7    1    1
   4.541029375e-01    7    7    2    2
   4.904686229e-01    7    7    3    3
   4.548299423e-01    7    7    4    4
   2.810023911e-02    7    7    5    1
   4.709052306e-01    7    7    5    5
   4.803418060e-01    7    7    6    6
   5.216694528e-01    7    7    7    7
   3.666540291e-02    7    7    8    2
   5.333113623e-01    7    7    8    8
   4.947137078e-02    8    1    2    1
  -6.142389736e-02    8    1    5    2
   9.391081996e-02    8    1    6    4
   9.391083109e-02    8    1    7    3
   1.092441710e-01    8    1    8    1
   4.925787068e-02    8    1    8    5
   6.986654702e-02    8    2    1    1
  -1.010172313e-03    8    2    2    2
   4.607857952e-02    8    2    3    3
   4.607856359e-02    8    2    4    4
   2.095100013e-02    8    2    5    1
  -3.719091984e-03    8    2    5    5
   3.666536019e-02    8    2    6    6
   3.666540291e-02    8    2    7    7
   3.151537224e-02    8    2    8    2
   5.397062848e-02    8    2    8    8
   2.138344216e-02    8    3    3    2
   3.092397362e-02    8    3    7    1
  -7.867705716e-03    8    3    7    5
   3.272250729e-02    8    3    8    3
   2.138343846e-02    8    4    4    2
   3.092395327e-02    8    4    6    1
  -7.867712867e-03    8    4    6    5
   3.272249730e-02    8    4    8    4
   3.367059574e-02    8    5    2    1
  -8.468388030e-02    8    5    5    2
   5.875621361e-02    8    5    6    4
   5.875619631e-02    8    5    7    3
   4.925787068e-02    8    5    8    1
   5.433740599e-02    8    5    8    5
   5.480828606e-02    8    6    4    1
  -2.864503108e-03    8    6    5    4
   3.299660535e-02    8    6    6    2
   4.374394613e-02    8    6    8    6
   5.480833699e-02    8    7    3    1
  -2.864503396e-03    8    7    5    3
   3.299663791e-02    8    7    7    2
   4.374399559e-02    8    7    8    7
   6.486754611e-01    8    8    1    1
   4.607933211e-01    8    8    2    2
   5.210410471e-01    8    8    3    3
   5.210409970e-01    8    8    4    4
   8.332258358e-02    8    8    5    1
   5.026448246e-01    8    8    5    5
   5.333113864e-01    8    8    6    6
   5.333113623e-01    8    8    7    7
   5.397062848e-02    8    8    8    2
   6.463081884e-01    8    8    8    8
  -6.343191752e-02    9    1    1    1
  -1.185658520e-02    9    1    2    2
  -2.150276172e-02    9    1    3    3
  -2.150275256e-02    9    1    4    4
  -2.801656334e-02    9    1    5    1
  -2.729674032e-02    9    1    5    5
  -2.183118631e-02    9    1    6    6
  -2.183119149e-02    9    1    7    7
  -5.108620617e-03    9    1    8    2
  -5.789636549e-02    9    1    8    8
   6.977894169e-03    9    2    2    1
  -8.181647159e-03    9    2    5    2
   1.508912283e-02    9    2    6    4
   1.508912071e-02    9    2    7    3
   1.380854817e-02    9    2    8    1
   1.881240892e-03    9    2    8    5
   1.758089206e-02    9    3    3    1
  -7.405380574e-03    9    3    5    3
   1.590237012e-02    9    3    7    2
   9.086189131e-03    9    3    8    7
   1.758089061e-02    9    4    4    1
  -7.405382061e-03    9    4    5    4
   1.590237133e-02    9    4    6    2
   9.086182371e-03    9    4    8    6
  -1.091459237e-01    9    5    1    1
  -5.550081040e-02    9    5    2    2
  -7.360270049e-02    9    5    3    3
  -7.360268760e-02    9    5    4    4
  -2.439119734e-02    9    5    5    1
  -6.964443940e-02    9    5    5    5
  -7.775204551e-02    9    5    6    6
  -7.775203834e-02    9    5    7    7
  -1.596665058e-02    9    5    8    2
  -1.048515628e-01    9    5    8    8
   7.319617268e-03    9    6    4    2
   5.495138206e-03    9    6    6    1
  -7.407138219e-03    9    6    6    5
   3.585638998e-03    9    6    8    4
   7.319613418e-03    9    7    3    2
   5.495136265e-03    9    7    7    1
  -7.407128330e-03    9    7    7    5
   3.585638903e-03    9    7    8    3
  -1.139444135e-03    9    8    2    1
  -6.359932989e-03    9    8    5    2
  -6.463512997e-03    9    8    6    4
  -6.463517315e-03    9    8    7    3
  -2.663511389e-02    9    8    8    1
  -1.008715975e-02    9    8    8    5
   3.683833245e-01    9    9    1    1
   3.323191727e-01    9    9    2    2
   3.329797650e-01    9    9    3    3
   3.329797532e-01    9    9    4    4
   2.002666745e-02    9    9    5    1
   3.475288846e-01    9    9    5    5
   3.400998155e-01    9    9    6    6
   3.400997815e-01    9    9    7    7
   5.100425757e-03    9    9    8    2
   3.698930856e-01    9    9    8    8
   3.500565767e-02   10    1    3    1
   2.076690076e-03   10    1    5    3
   1.819868762e-02   10    1    7    2
   2.718728837e-02   10    1    8    7
   6.972409880e-03   10    2    3    2
   9.149408181e-03   10    2    7    1
  -5.169675333e-03   10    2    7    5
   9.188444623e-03   10    2    8    3
   1.365905399e-01   10    3    1    1
   7.474987883e-02   10    3    2    2
   9.675893525e-02   10    3    3    3
   8.981649223e-02   10    3    4    4
   2.728338703e-02   10    3    5    1
   8.875378777e-02   10    3    5    5
   9.821168214e-02   10    3    6    6
   1.084093874e-01   10    3    7    7
   1.996402591e-02   10    3    8    2
   1.382848706e-01   10    3    8    8
   3.471211200e-03   10    4    4    3
   5.098858872e-03   10    4    7    6
   1.100892880e-02   10    5    3    1
   3.698626482e-03   10    5    5    3
   1.118846991e-03   10    5    7    2
   5.638710096e-03   10    5    8    7
   5.702477485e-03   10    6    6    3
   5.702476826e-03   10    6    7    4
   3.045224837e-02   10    7    2    1
  -4.728971097e-02   10    7    5    2
   5.336441127e-02   10    7    6    4
   6.476935502e-02   10    7    7    3
   5.657110341e-02   10    7    8    1
   2.788529985e-02   10    7    8    5
   1.559532908e-02   10    8    3    2
   2.259649804e-02   10    8    7    1
  -6.431628122e-03   10    8    7    5
   2.307129806e-02   10    8    8    3
  -1.273053370e-02   10    9    3    1
  -4.838263148e-03   10    9    5    3
   2.772289135e-04   10    9    7    2
  -8.892761971e-03   10    9    8    7
   4.267133436e-01   10   10    1    1
   3.474603757e-01   10   10    2    2
   3.950345833e-01   10   10    3    3
   3.688244084e-01   10   10    4    4
   3.071600872e-02   10   10    5    1
   3.602090592e-01   10   10    5    5
   3.745918357e-01   10   10    6    6
   3.977425157e-01   10   10    7    7
   2.964727391e-02   10   10    8    2
   4.204350805e-01   10   10    8    8
   3.500565809e-02   11    1    4    1
   2.076683815e-03   11    1    5    4
   1.819869701e-02   11    1    6    2
   2.718727660e-02   11    1    8    6
   6.972415185e-03   11    2    4    2
   9.149411937e-03   11    2    6    1
  -5.169688054e-03   11    2    6    5
   9.188446432e-03   11    2    8    4
   3.471215131e-03   11    3    4    3
   5.098862266e-03   11    3    7    6
   1.365905439e-01   11    4    1    1
   7.474988967e-02   11    4    2    2
   8.981651481e-02   11    4    3    3
   9.675892446e-02   11    4    4    4
   2.728338384e-02   11    4    5    1
   8.875379791e-02   11    4    5    5
   1.084094163e-01   11    4    6    6
   9.821167928e-02   11    4    7    7
   1.996402607e-02   11    4    8    2
   1.382848778e-01   11    4    8    8
   1.100892283e-02   11    5    4    1
   3.698628129e-03   11    5    5    4
   1.118835254e-03   11    5    6    2
   5.638704126e-03   11    5    8    6
   3.045227310e-02   11    6    2    1
  -4.728976917e-02   11    6    5    2
   6.476940911e-02   11    6    6    4
   5.336444438e-02   11    6    7    3
   5.657111791e-02   11    6    8    1
   2.788531938e-02   11    6    8    5
   5.702477407e-03   11    7    6    3
   5.702476748e-03   11    7    7    4
   1.559533250e-02   11    8    4    2
   2.259649204e-02   11    8    6    1
  -6.431638573e-03   11    8    6    5
   2.307129751e-02   11    8    8    4
  -1.273052836e-02   11    9    4    1
  -4.838263853e-03   11    9    5    4
   2.772383931e-04   11    9    6    2
  -8.892755595e-03   11    9    8    6
   1.310507701e-02   11   10    4    3
   1.157534655e-02   11   10    7    6
   4.267133747e-01   11   11    1    1
   3.474603942e-01   11   11    2    2
   3.688244505e-01   11   11    3    3
   3.950345837e-01   11   11    4    4
   3.071601427e-02   11   11    5    1
   3.602090808e-01   11   11    5    5
   3.977425481e-01   11   11    6    6
   3.745918419e-01   11   11    7    7
   2.964727845e-02   11   11    8    2
   4.204351129e-01   11   11    8    8
  -9.636145585e-02   12    1    1    1
  -4.614466142e-02   12    1    2    2
  -5.357446239e-02   12    1    3    3
  -5.357445150e-02   12    1    4    4
  -2.610189122e-02   12    1    5    1
  -6.173534525e-02   12    1    5    5
  -6.152816808e-02   12    1    6    6
  -6.152815449e-02   12    1    7    7
  -1.020064183e-02   12    1    8    2
  -9.505882603e-02   12    1    8    8
  -2.365652976e-02   12    2    2    1
   5.865450201e-02   12    2    5    2
  -4.180878426e-02   12    2    6    4
  -4.180876326e-02   12    2    7    3
  -2.837870318e-02   12    2    8    1
  -2.851808607e-02   12    2    8    5
   8.887798762e-03   12    3    3    1
  -1.869488331e-03   12    3    5    3
   3.249036946e-03   12    3    7    2
   9.287878172e-05   12    3    8    7
   8.887799976e-03   12    4    4    1
  -1.869488632e-03   12    4    5    4
   3.249026950e-03   12    4    6    2
   9.287801929e-05   12    4    8    6
   1.575361368e-02   12    5    1    1
   6.278820996e-02   12    5    2    2
   3.080362055e-02   12    5    3    3
   3.080362723e-02   12    5    4    4
  -1.622292476e-02   12    5    5    1
   6.608158274e-02   12    5    5    5
   4.907188178e-02   12    5    6    6
   4.907182392e-02   12    5    7    7
  -1.128445035e-02   12    5    8    2
   3.515192407e-02   12    5    8    8
  -8.557321617e-03   12    6    4    2
  -9.600884734e-03   12    6    6    1
   8.372918785e-03   12    6    6    5
  -7.966517166e-03   12    6    8    4
  -8.557298310e-03   12    7    3    2
  -9.600867785e-03   12    7    7    1
   8.372882543e-03   12    7    7    5
  -7.966512580e-03   12    7    8    3
  -7.972145741e-03   12    8    2    1
   2.640748114e-04   12    8    5    2
  -1.639067147e-02   12    8    6    4
  -1.639067813e-02   12    8    7    3
  -2.729979908e-02   12    8    8    1
  -7.058128335e-03   12    8    8    5
   5.855885283e-02   12    9    1    1
  -6.718117183e-03   12    9    2    2
   3.488009976e-02   12    9    3    3
   3.488008490e-02   12    9    4    4
   2.210854910e-02   12    9    5    1
  -4.588357525e-03   12    9    5    5
   1.684530742e-02   12    9    6    6
   1.684535061e-02   12    9    7    7
   2.050384667e-02   12    9    8    2
   3.653329228e-02   12    9    8    8
  -4.855672664e-02   12   10    3    1
   1.556438238e-02   12   10    5    3
  -4.196805527e-02   12   10    7    2
  -2.615673410e-02   12   10    8    7
  -4.855672061e-02   12   11    4    1
   1.556439173e-02   12   11    5    4
  -4.196806009e-02   12   11    6    2
  -2.615671300e-02   12   11    8    6
   4.138488762e-01   12   12    1    1
   3.659993056e-01   12   12    2    2
   3.804775218e-01   12   12    3    3
   3.804775060e-01   12   12    4    4
   1.998216651e-02   12   12    5    1
   3.790558775e-01   12   12    5    5
   3.866100487e-01   12   12    6    6
   3.866100139e-01   12   12    7    7
   1.752159033e-02   12   12    8    2
   4.091566580e-01   12   12    8    8
  -6.831774827e-03   13    1    4    2
  -1.095803791e-02   13    1    6    1
   2.791793037e-03   13    1    6    5
  -1.186166573e-02   13    1    8    4
  -3.621857750e-03   13    2    4    1
   4.952181756e-04   13    2    5    4
  -3.836276855e-03   13    2    6    2
  -6.437070810e-03   13    2    8    6
  -2.803925464e-03   13    3    6    3
  -2.803924032e-03   13    3    7    4
  -1.498785428e-02   13    4    2    1
   2.102257959e-02   13    4    5    2
  -3.283053389e-02   13    4    6    4
  -2.722268093e-02   13    4    7    3
  -3.297358221e-02   13    4    8    1
  -1.432624447e-02   13    4    8    5
   1.348976668e-03   13    5    4    2
   4.394448460e-04   13    5    6    1
  -3.320045147e-03   13    5    6    5
  -5.750228940e-05   13    5    8    4
  -1.054398389e-01   13    6    1    1
  -6.813608238e-02   13    6    2    2
  -7.597619296e-02   13    6    3    3
  -8.211998383e-02   13    6    4    4
  -1.617456224e-02   13    6    5    1
  -7.802792740e-02   13    6    5    5
  -9.593332577e-02   13    6    6    6
  -8.617598406e-02   13    6    7    7
  -1.541446987e-02   13    6    8    2
  -1.124835977e-01   13    6    8    8
  -3.071895948e-03   13    7    4    3
  -4.878655493e-03   13    7    7    6
  -2.595165577e-02   13    8    4    1
   2.889755670e-03   13    8    5    4
  -1.815648160e-02   13    8    6    2
  -2.008217919e-02   13    8    8    6
  -8.634869885e-03   13    9    4    2
  -4.038629935e-03   13    9    6    1
   1.085824974e-02   13    9    6    5
   1.168532868e-03   13    9    8    4
  -7.203610533e-03   13   10    6    3
  -7.203613623e-03   13   10    7    4
  -4.296789371e-02   13   11    2    1
   8.399483956e-02   13   11    5    2
  -8.534641391e-02   13   11    6    4
  -7.093918060e-02   13   11    7    3
  -5.197155994e-02   13   11    8    1
  -3.932642585e-02   13   11    8    5
   2.180263892e-02   13   12    4    2
   1.820118042e-02   13   12    6    1
  -1.915141862e-02   13   12    6    5
   1.096374805e-02   13   12    8    4
   3.400344831e-01   13   13    1    1
   3.164437636e-01   13   13    2    2
   3.129651205e-01   13   13    3    3
   3.310433921e-01   13   13    4    4
   9.906694143e-03   13   13    5    1
   3.225211112e-01   13   13    5    5
   3.421071621e-01   13   13    6    6
   3.235836344e-01   13   13    7    7
   1.188230754e-02   13   13    8    2
   3.440982516e-01   13   13    8    8
  -6.831798894e-03   14    1    3    2
  -1.095806965e-02   14    1    7    1
   2.791801979e-03   14    1    7    5
  -1.186169356e-02   14    1    8    3
  -3.621900307e-03   14    2    3    1
   4.952373577e-04   14    2    5    3
  -3.836314896e-03   14    2    7    2
  -6.437099117e-03   14    2    8    7
  -1.498791135e-02   14    3    2    1
   2.102267957e-02   14    3    5    2
  -2.722277740e-02   14    3    6    4
  -3.283064408e-02   14    3    7    3
  -3.297366055e-02   14    3    8    1
  -1.432629125e-02   14    3    8    5
  -2.803935787e-03   14    4    6    3
  -2.803934355e-03   14    4    7    4
   1.348995764e-03   14    5    3    2
   4.394542749e-04   14    5    7    1
  -3.320061179e-03   14    5    7    5
  -5.749835052e-05   14    5    8    3
  -3.071914785e-03   14    6    4    3
  -4.878675661e-03   14    6    7    6
  -1.054400474e-01   14    7    1    1
  -6.813621368e-02   14    7    2    2
  -8.212016334e-02   14    7    3    3
  -7.597633274e-02   14    7    4    4
  -1.617459306e-02   14    7    5    1
  -7.802807242e-02   14    7    5    5
  -8.617616404e-02   14    7    6    6
  -9.593348463e-02   14    7    7    7
  -1.541450114e-02   14    7    8    2
  -1.124838091e-01   14    7    8    8
  -2.595170850e-02   14    8    3    1
   2.889754857e-03   14    8    5    3
  -1.815651010e-02   14    8    7    2
  -2.008222894e-02   14    8    8    7
  -8.634872601e-03   14    9    3    2
  -4.038631936e-03   14    9    7    1
   1.085824784e-02   14    9    7    5
   1.168529468e-03   14    9    8    3
  -4.296791640e-02   14   10    2    1
   8.399487447e-02   14   10    5    2
  -7.093923025e-02   14   10    6    4
  -8.534645531e-02   14   10    7    3
  -5.197160220e-02   14   10    8    1
  -3.932644689e-02   14   10    8    5
  -7.203615555e-03   14   11    6    3
  -7.203618646e-03   14   11    7    4
   2.180263950e-02   14   12    3    2
   1.820119137e-02   14   12    7    1
  -1.915140926e-02   14   12    7    5
   1.096375692e-02   14   12    8    3
   9.039141746e-03   14   13    4    3
   9.261754509e-03   14   13    7    6
   3.400346548e-01   14   14    1    1
   3.164438725e-01   14   14    2    2
   3.310435307e-01   14   14    3    3
   3.129652353e-01   14   14    4    4
   9.906721384e-03   14   14    5    1
   3.225212361e-01   14   14    5    5
   3.235838024e-01   14   14    6    6
   3.421072928e-01   14   14    7    7
   1.188233258e-02   14   14    8    2
   3.440984341e-01   14   14    8    8
   5.938709234e-04   15    1    2    1
   4.912326179e-03   15    1    5    2
   2.349493955e-03   15    1    6    4
   2.349500218e-03   15    1    7    3
   1.132712597e-02   15    1    8    1
   3.831094120e-03   15    1    8    5
  -5.853753331e-02   15    2    1    1
  -6.983330034e-02   15    2    2    2
  -5.471642527e-02   15    2    3    3
  -5.471642522e-02   15    2    4    4
   1.670616913e-03   15    2    5    1
  -7.743572593e-02   15    2    5    5
  -6.790361392e-02   15    2    6    6
  -6.790356948e-02   15    2    7    7
   1.627233628e-03   15    2    8    2
  -6.762226629e-02   15    2    8    8
  -4.098643451e-03   15    3    3    2
  -1.535151155e-03   15    3    7    1
   6.224817648e-03   15    3    7    5
   7.963805562e-04   15    3    8    3
  -4.098646304e-03   15    4    4    2
  -1.535155805e-03   15    4    6    1
   6.224826228e-03   15    4    6    5
   7.963789578e-04   15    4    8    4
   2.578440850e-02   15    5    2    1
  -6.206814782e-02   15    5    5    2
   4.630453842e-02   15    5    6    4
   4.630451920e-02   15    5    7    3
   3.285121467e-02   15    5    8    1
   3.111780833e-02   15    5    8    5
  -2.049793195e-03   15    6    4    1
   6.849328186e-03   15    6    5    4
  -9.490473494e-03   15    6    6    2
  -1.314782497e-05   15    6    8    6
  -2.049772783e-03   15    7    3    1
   6.849312856e-03   15    7    5    3
  -9.490435423e-03   15    7    7    2
  -1.314243132e-05   15    7    8    7
   8.376477494e-02   15    8    1    1
   4.913213915e-02   15    8    2    2
   5.762824919e-02   15    8    3    3
   5.762823972e-02   15    8    4    4
   1.730751404e-02   15    8    5    1
   6.107321194e-02   15    8    5    5
   6.107568316e-02   15    8    6    6
   6.107567365e-02   15    8    7    7
   7.923726754e-03   15    8    8    2
   8.515356851e-02   15    8    8    8
  -3.772016714e-02   15    9    2    1
   9.776718861e-02   15    9    5    2
  -6.379402987e-02   15    9    6    4
  -6.379401023e-02   15    9    7    3
  -3.245414589e-02   15    9    8    1
  -4.860286842e-02   15    9    8    5
  -6.815679041e-03   15   10    3    2
  -2.838946969e-03   15   10    7    1
   8.905585361e-03   15   10    7    5
   1.346140505e-03   15   10    8    3
  -6.815682263e-03   15   11    4    2
  -2.838949471e-03   15   11    6    1
   8.905592828e-03   15   11    6    5
   1.346140841e-03   15   11    8    4
   2.817822120e-02   15   12    2    1
  -7.790558504e-02   15   12    5    2
   4.701177724e-02   15   12    6    4
   4.701175591e-02   15   12    7    3
   1.786890159e-02   15   12    8    1
   3.405658688e-02   15   12    8    5
   8.722476946e-03   15   13    4    1
  -1.019707887e-02   15   13    5    4
   1.656275897e-02   15   13    6    2
   9.924236713e-04   15   13    8    6
   8.722476133e-03   15   14    3    1
  -1.019707910e-02   15   14    5    3
   1.656275698e-02   15   14    7    2
   9.924263403e-04   15   14    8    7
   2.834509020e-01   15   15    1    1
   3.108072629e-01   15   15    2    2
   2.750080661e-01   15   15    3    3
   2.750080686e-01   15   15    4    4
  -2.826683214e-03   15   15    5    1
   3.216635073e-01   15   15    5    5
   2.942410096e-01   15   15    6    6
   2.942409466e-01   15   15    7    7
  -1.491868857e-02   15   15    8    2
   3.026998805e-01   15   15    8    8
  -2.489131364e-02   16    1    3    3
   2.489130830e-02   16    1    4    4
   1.996090174e-02   16    1    6    6
  -1.996091077e-02   16    1    7    7
   1.458736951e-02   16    2    6    4
  -1.458736807e-02   16    2    7    3
  -6.021073738e-02   16    3    3    1
   1.371182365e-02   16    3    5    3
  -4.644128219e-02   16    3    7    2
  -3.616910911e-02   16    3    8    7
   6.021072311e-02   16    4    4    1
  -1.371183661e-02   16    4    5    4
   4.644129055e-02   16    4    6    2
   3.616907718e-02   16    4    8    6
   5.814090821e-03   16    5    3    3
  -5.814094093e-03   16    5    4    4
  -9.607422375e-03   16    5    6    6
   9.607412085e-03   16    5    7    7
   2.776369365e-02   16    6    4    2
   2.688336080e-02   16    6    6    1
  -2.201400937e-02   16    6    6    5
   2.090170354e-02   16    6    8    4
  -2.776368720e-02   16    7    3    2
  -2.688337001e-02   16    7    7    1
   2.201398086e-02   16    7    7    5
  -2.090171478e-02   16    7    8    3
   1.189293881e-02   16    8    6    4
  -1.189294449e-02   16    8    7    3
  -9.093394050e-03   16    9    3    3
   9.093392798e-03   16    9    4    4
   6.709264062e-03   16    9    6    6
  -6.709268040e-03   16    9    7    7
  -8.751928743e-03   16   10    3    1
  -1.311774145e-03   16   10    5    3
  -4.295799690e-03   16   10    7    2
  -8.711242601e-03   16   10    8    7
   8.751932879e-03   16   11    4    1
   1.311771286e-03   16   11    5    4
   4.295807601e-03   16   11    6    2
   8.711241993e-03   16   11    8    6
  -7.052691098e-03   16   12    3    3
   7.052690260e-03   16   12    4    4
   2.708045981e-03   16   12    6    6
  -2.708054737e-03   16   12    7    7
  -1.317038267e-03   16   13    4    2
  -3.273146431e-03   16   13    6    1
   2.229721602e-04   16   13    6    5
  -4.228423951e-03   16   13    8    4
   1.317059180e-03   16   14    3    2
   3.273167451e-03   16   14    7    1
  -2.229852287e-04   16   14    7    5
   4.228441279e-03   16   14    8    3
  -1.150675384e-03   16   15    6    4
   1.150673679e-03   16   15    7    3
   5.075054420e-01   16   16    1    1
   4.039634894e-01   16   16    2    2
   4.549222360e-01   16   16    3    3
   4.549222039e-01   16   16    4    4
   3.458853114e-02   16   16    5    1
   4.132667342e-01   16   16    5    5
   4.528794644e-01   16   16    6    6
   4.528794469e-01   16   16    7    7
   4.446972611e-02   16   16    8    2
   4.853206122e-01   16   16    8    8
   2.489131097e-02   17    1    4    3
   1.996090626e-02   17    1    7    6
   1.458736785e-02   17    2    6    3
   1.458736973e-02   17    2    7    4
   6.021072847e-02   17    3    4    1
  -1.371183369e-02   17    3    5    4
   4.644128961e-02   17    3    6    2
   3.616908078e-02   17    3    8    6
   6.021073202e-02   17    4    3    1
  -1.371182656e-02   17    4    5    3
   4.644128313e-02   17    4    7    2
   3.616910551e-02   17    4    8    7
  -5.814092457e-03   17    5    4    3
  -9.607417230e-03   17    5    7    6
   2.776368886e-02   17    6    3    2
   2.688336666e-02   17    6    7    1
  -2.201398847e-02   17    6    7    5
   2.090170711e-02   17    6    8    3
   2.776369199e-02   17    7    4    2
   2.688336415e-02   17    7    6    1
  -2.201400177e-02   17    7    6    5
   2.090171121e-02   17    7    8    4
   1.189293923e-02   17    8    6    3
   1.189294406e-02   17    8    7    4
   9.093393424e-03   17    9    4    3
   6.709266051e-03   17    9    7    6
   8.751926212e-03   17   10    4    1
   1.311773353e-03   17   10    5    4
   4.295801756e-03   17   10    6    2
   8.711237983e-03   17   10    8    6
   8.751935409e-03   17   11    3    1
   1.311772077e-03   17   11    5    3
   4.295805534e-03   17   11    7    2
   8.711246612e-03   17   11    8    7
   7.052690679e-03   17   12    4    3
   2.708050359e-03   17   12    7    6
  -1.317038798e-03   17   13    3    2
  -3.273146857e-03   17   13    7    1
   2.229699857e-04   17   13    7    5
  -4.228424426e-03   17   13    8    3
  -1.317058649e-03   17   14    4    2
  -3.273167025e-03   17   14    6    1
   2.229874033e-04   17   14    6    5
  -4.228440803e-03   17   14    8    4
  -1.150675006e-03   17   15    6    3
  -1.150674057e-03   17   15    7    4